1
Properties=species:S:1:pos:R:3 REF_energy=0.0
Li      0.0     0.0     0.0
1
Properties=species:S:1:pos:R:3 REF_energy=0.0
Li      0.0     0.0     0.0
