(written by ASE)

756 atoms
4 atom types

0.0      12.215126236949999  xlo xhi
0.0       11.57969423918383  ylo yhi
0.0      103.48095752482077  zlo zhi
    -3.8387662240271885    -0.15491130749348353    0.089051322638858343  xy xz yz

Atoms # atomic

     1   2      1.7189940956996435      7.1158732217472664      19.286069603401454
     2   2      3.8068529283301209      1.1259055403527209      19.318983984135912
     3   2    -0.13492674509663508     0.88201612349327541      19.210068940807954
     4   2     -1.3749623903429429      6.9064499384044193      19.880829064179796
     5   2    -0.99503962714571426      9.9163598178806343      19.906336859649937
     6   2        10.2718514500837     0.39031678657738123      21.001507765522728
     7   2      3.7257072073815727      7.0577870427940201      20.599275758563991
     8   2      3.2835443677623619     0.42211694885389883      21.318045927119972
     9   2      9.8090595767419444      6.3977840136434123      21.972731195568375
    10   2      5.3526461776709766       8.560945871853761      22.241709607817512
    11   2      4.4903901757563238      11.137584819530797      22.315454566304297
    12   2       7.426340772741975      6.9161733450354852      22.966466475896464
    13   2      4.8081887426891523     0.64786694449603655      23.144221781076407
    14   2      4.3807718655699555      6.0841518630953253      22.898558191182708
    15   2      9.7370585997391412      2.0963065164554564      23.737493846943636
    16   2      3.4595689957675262        2.63731493116798       23.44837468850956
    17   2      9.8762892059563168      5.0029330429452523      23.815330284503695
    18   2      2.5504350453247979      4.5353958596518602      24.631082943218825
    19   2    -0.07849939466528788      3.8118016998021549      24.560086443290544
    20   2      8.9445102365710518      7.2633340054178772      24.881851599100255
    21   2     0.51120345066443218      11.160566917098111      25.689417806685324
    22   2      10.460265791917719      1.5945258547433421      25.973593956489022
    23   2      2.3405067577631953      6.4033916969067883      26.471779219838556
    24   2     -1.0986537633554556       9.303144291560498      26.539732262378685
    25   2      8.5088335806010971      9.0036766319681067      26.643992178113109
    26   2      1.3285554141438156      8.5752011514110382      27.252166110481642
    27   2      2.2540595311368157      11.431658696672052      27.778231767351738
    28   2      7.2637948064504334       11.27828593563779      27.573274363951921
    29   2      8.9102170244171948     0.94410788845564719      27.886509775703175
    30   2      7.0512368040295703      6.9130554849585231      27.875118567786206
    31   2       4.443179951618788      5.8297607390164687      28.319212470414566
    32   2      6.4331109738573691       1.769058719753221      28.999443426433054
    33   2      6.3404146296604225      4.2840435653759297      28.969758604357725
    34   2      1.7824321249023309      6.4046819179619066      29.061504171262019
    35   2      10.763509754085838      1.3549940238579086      29.251473921115071
    36   2       7.252778139816634       6.471143167863719      30.112114381872122
    37   2      4.7416130391381452      1.1190861657515234      30.811127642716752
    38   2     0.16306758589647638      3.2329060091460113      30.824967384807458
    39   2     0.21483791485640569      5.9174425461069173      31.048674157820486
    40   2      2.2875255717177772      1.6260169225856997       31.87501192633416
    41   2       9.599439054248565      6.6181580390120747      31.956375277022442
    42   2      11.617997057214465     0.63147005418986546      32.033116633963459
    43   2      1.3254680816331301       8.047149484618183      32.362093543614542
    44   2      7.0585369213788045      8.0035590100106511      32.100968960408302
    45   2      1.6855896731420488      10.936210661976389      32.627298493402677
    46   2      6.1510298539300123      10.219757585665722      33.138894532854245
    47   2      3.4534538592709452      9.4133936601185848       33.30215567484197
    48   2      4.3267993893214456      1.5646445075718884       33.40489030169531
    49   2      7.8986820874767405      5.8150364682908622      33.619825438718017
    50   2      1.9975603687412873      7.6609864448840588      34.798268250848807
    51   2      10.463964062578325     0.15581902840579517      34.809441621100895
    52   2      6.5320256000618651      4.4567630870964949      35.494359025019619
    53   2      3.9680061677472716      3.1808074807641393      35.573557260503222
    54   2      8.7291799483534724       3.545660398203522      35.765395051495268
    55   2      9.6940488730102352      5.8687502400533393      36.703453450091381
    56   2      2.8377136061248609      5.5017458712467233      36.121326611240058
    57   2     0.75187556038447845      7.0949001977432573      36.729076185689536
    58   2      2.4642595104211882      1.4394460744422959      36.886858935912322
    59   2      12.054588836003489     0.14405022774136214      36.786867917946488
    60   2     -1.9554099531719609      8.4783941798881557      37.382859536339474
    61   2     -1.8086564523404467      10.935549286864443      37.970137950344984
    62   2       9.879544039045614      1.5274663591091868      36.770081274328525
    63   2      2.6494017633396756      7.4812016000214623       38.26287168629846
    64   2      2.7841268251821734      1.4300172996430087      39.398307986746453
    65   2      8.4483840787015829      7.1031508171202429       38.71617978984569
    66   2       3.958967941873738      9.2002530593765037      39.888785969564353
    67   2      8.4459220304077185     0.79046860729045665      38.818904451724386
    68   2      6.1900985760693992      7.6597334777632415      40.352197670535858
    69   2      6.1264267529579488      0.7531095171362473      40.509130180454889
    70   2      3.3440048787929442      6.8790963882291356      41.129998670689758
    71   2       8.264506780399028      2.5848495007012642      41.369972440769445
    72   2      1.9570750650377267      3.0456531702144427      41.065639441946679
    73   2      8.8319224266185383       6.077926366007139      40.816050215508504
    74   2      1.1142703739518887      5.0072911680894094      42.019668984334039
    75   2     -1.2344186027978847      3.8884062124347878      41.629996442137241
    76   2      8.1302745241228749      7.9555247233704076      42.015165141823417
    77   2      3.6457071879681511     0.93971140951705601      41.677203303289843
    78   2        9.91874123856668      1.9002649638125115      43.679069231322892
    79   2      1.7274612395403841      6.5307967398936757       43.87804943905217
    80   2     -1.7719012199495423       10.47511036552217      43.803833423629236
    81   2      8.0870212360073666      9.1113617852153617      44.048688097621934
    82   2     0.67581858452362509      9.1914364884270725      45.027257607321616
    83   2      4.3354291372293359     0.28579527795510395      44.440884108876453
    84   2      7.6107895668119099      11.494879030310862      44.930579241772371
    85   2     -2.1676218202742406      10.741425859838714      49.961227816742635
    86   2      2.1363547350843595      2.5523372717381871      51.332248769062538
    87   2      2.8357808114317269      1.0524421098983407      56.761847379673661
    88   2      3.0344632881588129     0.21989352107328905      64.898971549340516
    89   2      4.3501425813723875      1.2470825038614972      69.066498988134725
    90   2      4.1326934674446418     0.61194536989855586      75.139503041561341
    91   2      5.8029199857764198      2.4757677424290661      79.010399921256052
    92   2      2.1670200803975539     0.97695732289952819      83.345520196764767
    93   2      1.0523773140840254      10.123633689468654      88.317139500780343
    94   2      2.6356777392288468      1.2556857309282834      48.629568700956128
    95   2      0.5897591555935463      2.7973997254944782      48.689035469095707
    96   2      2.5782363185789237      2.5279627543247267      54.266265772384621
    97   2      3.3197772930897251      2.4105554234530797      58.836264161221109
    98   2      2.4808447870191284      2.9583716212587374      64.091177594470253
    99   2      5.7041232153075132      1.2843383952631371      71.836795145507054
   100   2      2.7807398121774614      2.7903277358934622      76.552079236796914
   101   2      3.3623014614075388      3.5306897030202475      79.135883269612947
   102   2      1.4385999313843079      4.5146026089127673      83.792737681242343
   103   2       2.834588106806502      2.5744501430068643      85.848962625741493
   104   2      2.9833537677383895      3.7003869715495306      49.351722729400613
   105   2      2.2000814202098651      4.2196766563353005      46.639473015671079
   106   2      2.2572347365269687      5.6911361712288819      55.095459222274542
   107   2      1.2650553319442686      3.4425584811488581      60.393581207314831
   108   2      2.6565927223236017      4.0061372984307262      67.722607069947557
   109   2      4.6956339692931008      3.7359555606395172        69.6316310698097
   110   2      4.1846130594921949       5.448237969950223      77.649374913141102
   111   2      5.5338027559643406      4.8116975890056279      80.471090230732713
   112   2       3.524769285185859      5.6047744113401059      85.748091064592032
   113   2      5.6739150577570383      5.9541513200475311      93.815898451101191
   114   2      3.7858532714238025      5.2335787851294748      51.104875828484204
   115   2      2.5353639977641063       6.992298049999909      45.961135400407834
   116   2      2.6521729787281525      7.2497691888993394       53.13330698674438
   117   2      1.9027099863003871      6.0466579144499226      60.616803735981925
   118   2      2.8126212732818652      7.4649526140552167      66.286980022328663
   119   2      3.0409199174155259      5.7077996464694625      73.005937046195157
   120   2      2.3478994289046451      8.5993027205325205      72.176871063432671
   121   2      4.3254240602468625      6.1518639131351733      83.255314194992607
   122   2      1.9517060167506173      7.4790545464599161      84.177950926416131
   123   2      3.3902388010552693      6.3230918665892073      89.182620928284962
   124   2      3.7132408792458786      8.0507680321274115      50.979523154666595
   125   2        3.10390522334436      9.0651972085290886      48.130457019407338
   126   2      1.3758403344741836      8.6318047558445876      54.965864730279286
   127   2      1.4964001235806117      7.3074588265042069      58.053678137317448
   128   2      4.2510658749356045      9.2483444622490065      61.906181114139201
   129   2      5.1671678230977154      7.9958734230377582      73.038588551682651
   130   2      4.5554082456996063      9.7186645691354077      74.608738684037888
   131   2      4.2524729415622202      7.3354808971711041      79.414576673311046
   132   2      3.4117774631809854      8.7325082972723305      81.685228394538697
   133   2      3.5109133447135705      9.2541282810512122      89.718859452987616
   134   2       2.477296930823095      10.101640016511341      50.540200957239961
   135   2      4.5125834517164467      11.470886224119743      48.634454464192203
   136   2     0.27947054085422501       11.23787251030358      54.877491299081278
   137   2      3.1258707744295204      9.3570484423630571      57.367945089212867
   138   2      6.4920505121030443      1.0314491373662558      64.840711518176917
   139   2      3.5986249318160368      9.3695825882718662      68.102810962603442
   140   2      7.0703016054402585      2.2744214541327068      69.754867060958418
   141   2      5.7458687205008427       10.51752492598345      77.344657466873215
   142   2      2.9535865596534583      11.486158745941545      82.845492257693294
   143   2      4.6125575066422133      9.1023931103951377      84.445411246827646
   144   2      2.9556023892865921        10.6397257694945      55.272165169275532
   145   2     -1.2221360175109661      10.753512111054372      46.732097790127433
   146   2      4.3417082765255905      1.3508717736804372      52.758723699702486
   147   2       5.567507946363599      1.9169157419562906      60.380843027085696
   148   2      2.7223313952974304      1.4158143939102472      61.473093037793561
   149   2      6.4052990987999294      2.5352275263963961      67.001890245949085
   150   2      6.6986901363445099      2.9537808330221531       73.55650452433234
   151   2       8.490810311263294     0.94423182639828096      74.819047566829965
   152   2      3.7806472239532174      3.6304073637102716       82.96692804037437
   153   2      3.7937075267689409      11.094767196067604      87.419833134952157
   154   2     0.31129590022971187      11.098075844090635       50.77843540460654
   155   2      1.8494346063340237      1.5940540014461664      45.625383351937522
   156   2      5.1855030308439014      2.3701248766723459      55.175458809881071
   157   2      5.8273366382225653      3.2164340318153526      57.723753016372882
   158   2      4.0836607477093763      3.9123689064244207      61.950647733490186
   159   2      3.7350481197559278      2.2358645277408322       66.24032718843057
   160   2       5.420552555227208      2.5508334090037179      76.355115747651226
   161   2      8.0758111911405788      2.1258563950397327      77.494438242405479
   162   2      5.7062391212628194      3.8260857559994168      85.464068638145221
   163   2      5.4760079360663179      1.4009839563833164      87.171217281477382
   164   2      4.9889257519880736      2.5752383681056426      50.693915909207263
   165   2      4.5699039542771587      2.4015967369649251      46.727691626430506
   166   2      3.3115061968547899      3.7487769822587356      56.675336408032535
   167   2      3.9566226051874622      5.1275124333143873       59.48348271193003
   168   2      3.7968036071356899      5.3786291043324663      65.090247682694752
   169   2       5.204217293869922      4.6177167298392785      67.093697031114772
   170   2      5.2410929637276196      5.5118047137065718      75.129600743018912
   171   2      7.8501798947318591      5.5275307557903064      74.109051967541745
   172   2      5.6750809741767219      5.9588176855152808      87.800469207684756
   173   2      3.4737885491424407      3.7278259455839562      88.053606889822973
   174   2       5.319589146419581      4.2810340019218485      48.692610519406507
   175   2      2.8831581716635331      6.4149892106968691      48.396316161406695
   176   2      4.8679524327358843      6.6573967895979242      52.968987896869088
   177   2      3.4650243113539929      6.7251547704690156      57.235809185938678
   178   2      5.7882427809076837      6.9770397316475181      66.239248558192557
   179   2      4.6586606719526937      6.5312655356748968      70.678271809013822
   180   2      3.0095998508373492      7.7132046948900621      74.977517909054839
   181   2      5.6705979599838692      7.8703575449791208      76.936263856341668
   182   2      3.7480582550626931      8.2878434250962041      86.957532632529336
   183   2      6.1927933065594196       8.514305071786886       88.99844205655954
   184   2      4.7710632406999194      3.8895212634547844      53.114225921025657
   185   2      5.3268666540639762      7.3843813543017136      47.829226208590391
   186   2      4.2867958387345784      7.9222841411735265      55.296274247846355
   187   2        3.70766851949314      8.0834303239044765      59.505416059198794
   188   2      4.6215548134506115      8.2195869818849285       64.45815560032807
   189   2      6.3174160952586753      8.0403540093106152       68.87622947794263
   190   2      6.4243858413934296      10.902979436246198      73.611076522632942
   191   2      8.0826013714412408      9.9137820647312971      76.242629137426007
   192   2       5.770099987336228       10.67458027157357      82.441444602547108
   193   2      7.0753426373308477      9.4830199886623259      84.603110855195084
   194   2      3.8956195545193468       9.614562952211136      52.993814988862212
   195   2      5.5254369147030316      9.0749389465531802      49.877545584585235
   196   2      7.6280948351336697     0.90146909609114811      58.233183143937694
   197   2      5.1149000830445388      10.351953948339402      59.728009970851339
   198   2      5.2961598740885529      11.083212966430372      64.753860590585589
   199   2      5.8424435466610314      9.8694583679016894      66.963316201656625
   200   2      5.7558252261969747      11.140230763463219      69.452074259715985
   201   2      5.6844112837524223      9.5418961907469431      79.875135746599682
   202   2      9.5679099835560475     0.85209932624860152      79.895406911283629
   203   2     -3.5239908011904402      11.631330088342276      84.842342975558182
   204   2     0.10110357992163496      0.3050482844870599      47.727429823317181
   205   2      6.1637458145950559     0.40686662176148825      46.391571829051578
   206   2      5.3638015223238913     0.37991096134680835       57.17353948407839
   207   2      7.8779755238776392     0.23526087487014416      62.492816955681057
   208   2      4.6302379084397565      1.3612184807865795      63.096050549399436
   209   2      7.8774634877893748     0.54497195950996669      67.607732417971576
   210   2      9.4152169831195689      3.5631758881836681       75.55733500941804
   211   2      11.440857899860756      1.3948902232559555      74.351004781818716
   212   2      6.5685912171616394      2.5152309845294076      82.737455173429211
   213   2      9.7391754041845982     0.82498480060558588      85.140025232635836
   214   2      6.3692099030761939     0.30505495683401679      52.726785544156279
   215   2      5.9481706542369626     0.78340582891446153       48.90395530863961
   216   2       7.708827147695958      1.6642440106117258      55.645267930621429
   217   2      7.1696744341729381      2.9750236315956182      62.501050811068673
   218   2      5.7253533136918104      3.8268368662546153      64.624987257499626
   219   2      8.3784031964569845      2.7311005181068966      64.850051667290387
   220   2      5.4422402269202941      4.7852401211246676      72.354268722349232
   221   2      6.9729034025160415      4.7712529615069865      77.448356660623986
   222   2      7.0643694688227008       5.147807823074448      82.689671919703784
   223   2      7.4386224472530076      1.3041128215600546      85.316418608571013
   224   2      7.2887807901191159      3.0444261405132607      53.047343609571051
   225   2      6.6903659499390375      3.3938403561467334      45.112086071674099
   226   2      4.9297430885718505      5.2337129460159035      55.294989192174519
   227   2      7.9620067459283979      3.4917736250582943      59.255853798716913
   228   2      6.3217459389688733      5.1140594071847794      61.071358889566149
   229   2      7.8422842550625163      5.3765211805668569       65.68826270839952
   230   2      6.7253539753752021      5.0323501216534554      68.895468002753731
   231   2      8.8642455614447435      6.4983962774309445      76.364216342851222
   232   2      7.0722258047219526      6.5484080783825416      79.467979047184784
   233   2      8.5112712868422378      3.7886957995378205      85.005047413522192
   234   2      7.2976666700932711      4.4313435443445268      50.665312186124687
   235   2        4.90923554919988      5.3455873124982372      46.204297398890532
   236   2      7.1844671624509298      6.2371872695708639      53.081477445024902
   237   2      6.0971445985015258       6.146772604037821      57.982899752392882
   238   2      4.1733385444931477      6.5480046706608368      62.221224192337019
   239   2      6.5337584099976889      6.3888476451996565      63.636840277724041
   240   2      7.4042016517702178      6.8365362452843277      71.261605027618117
   241   2     -2.3114784365030383      7.2131427406851918      73.193522851770965
   242   2      6.2598898259796147      7.8088607537392862      82.088352100024963
   243   2      6.1868136062954378      6.9429465442045508      85.450264138151695
   244   2      8.5227035396706885      6.7078782720093919       50.60297060788907
   245   2      5.8786150206429379      6.4951311735149826      50.257360615817383
   246   2      5.8842090783777321      8.4450981118997408      57.853829835993835
   247   2      6.0043009072337457      7.8588848409837038       60.74206231371884
   248   2      7.3542504366998456       8.758018599758751      64.902520941232794
   249   2     -1.6543222449825268       9.032262244395481      66.334946999178996
   250   2      7.1357545198785459      9.5963153686229177      71.191390676290851
   251   2      7.3485180792421589      8.1262539033983341      74.182963495898363
   252   2      8.2359780672418346      10.872387775825747      78.943363101152599
   253   2      8.1296197483870181      9.4597632896072117      81.255240326099369
   254   2      6.2731151294480121      8.7169759154159934      52.471332677922007
   255   2      7.0615104655138525      7.4576985650759529      45.783544733281772
   256   2      5.3572718608808811       11.17143609425386      56.913308495261752
   257   2      7.6645307898928694      10.290401746846163       59.79383618136967
   258   2      6.7500932283935446      10.246718888109283      62.613511877539274
   259   2     -3.3887615751081288      9.9741418509399917      68.066169007241328
   260   2      11.300051252164305     0.61991481925142933      71.647131186552485
   261   2     -3.0917252964060364      9.9725620593719668      73.145203456586017
   262   2    -0.25398920771721994     0.61657591713195192      82.181073729255814
   263   2     -3.0575537354429843      9.4756349747155806       86.61427809033556
   264   2      6.2325712844599233      9.6880331615831743      54.787867106002004
   265   2      7.5722023321029166      1.7213924999828871      50.541761112146787
   266   2      9.3066258764877094      2.7992122674064155      57.278965446501104
   267   2      8.5580483719932516      1.3827751200652088      60.569506348965099
   268   2      10.266845176490566      1.4560916979361078      63.449222718368816
   269   2      10.084095263920048      2.2696588915495042        69.7105993920797
   270   2      9.5836965653442423      2.7219903202153821      72.542251124418215
   271   2      1.3944167319297118     0.39797007005038743      75.792426764389432
   272   2      7.9807495311723429      3.2771282168957261      80.305521008500847
   273   2     0.50995764909577135      1.5826055250305662      87.087675696198247
   274   2      9.0406419522976975     0.65978744573850578      54.022921929975283
   275   2      9.3048961656610931      1.2181721257997615       46.19515940410875
   276   2      9.6066398660139072      3.5801176244099628       54.63029602655358
   277   2      9.7464384864352809        3.58473086981446      61.756644716739849
   278   2      8.7996483070277876      5.2117998863976274      63.230359233086062
   279   2      8.8953201707752196      3.6624325684481116      67.977284134965132
   280   2      8.2853001975650411      4.2058329501052238      71.405452535311483
   281   2      10.023907032507946      4.2211943565822088      78.036192693733227
   282   2       9.529446960926526      6.1128292133505377      80.696588159231865
   283   2      9.1043171741141684      1.9835615841381795       82.58511585060738
   284   2      9.5681686774266677      4.5265848795018959      52.238464642466838
   285   2      7.4783829822300731      2.7913708729096798      47.901606989422469
   286   2      7.3211097249928452      4.6374574456883968      55.816251520279899
   287   2     -1.2957258617713794       4.832819510956667      57.362218650804543
   288   2      9.2389364631715196      5.8045836856091162      60.283857965184396
   289   2      -1.792291060322392      5.7598593820888988      66.502683093982782
   290   2      10.284093732826031      5.3061027540241232      69.840210888569672
   291   2    -0.64162126679191767      6.0220044521369065      76.123298831873711
   292   2      9.0637645697500577      7.0777719702176274      83.544597181159546
   293   2    -0.81322653667846678      5.5392603701190284      85.084442264901909
   294   2       9.758495908785072      3.9656851147799559      49.552862014659389
   295   2      7.5004901867574452      5.5552633563707063      47.958811436716879
   296   2      7.1377830397007527      7.2148899421601582      55.421214471430993
   297   2      8.6631839976344871       5.953202130155602      57.552524309012419
   298   2      8.4596813546263423      7.7289379567296876      61.863959450589995
   299   2      9.5938601629581033      7.4842565619025105      64.415701453615156
   300   2      8.2902002715653893      7.2152415319166225       67.44358430709579
   301   2     -1.8808169183463912      8.5622923348557762      75.307093137077345
   302   2      8.6829070593101658       8.322397689118203      78.668695476741576
   303   2      7.9440034456045305      4.6856917596256613      87.842149056614474
   304   2     -2.2305587216513918      6.9636422306813213      52.875527332624124
   305   2      9.9086861229589811      6.4809020916528759      47.871024531567059
   306   2      8.7779358771308349      9.1427111994121439      54.395290447061384
   307   2      8.0422494578686994      8.0336987962658721      58.938294086245321
   308   2     -3.0580078712816716      10.217551095448247      61.731918817593161
   309   2    0.099353071005936239      7.0855282018372829      65.061783036123529
   310   2      9.2900353536228426      8.4513973716138171      70.268918534944447
   311   2    -0.58794483961584809      8.4992447899575314      71.408504446253829
   312   2     -1.7130646991041203      10.120668964469569       77.87793787578363
   313   2      9.0563404219935215      6.8631248438391799      86.315467289295157
   314   2      7.7445271881376447      8.1319337882256946      48.777893566002994
   315   2      8.6681075000694143      9.4485067573546981      47.284016387989475
   316   2      7.6768298903908239      10.362447527210566      57.149461471829049
   317   2     -1.7493557001802338       9.397697885128073      59.657834889957741
   318   2      7.7762878221131322      11.535970989744939      65.569754676011712
   319   2     -2.4099044892604211      9.9434332402267547      64.195909177714299
   320   2     -2.2788931541327146      11.188322413146135       70.59131221295992
   321   2    -0.24281657500903103      9.9759433329371916      73.899105620340293
   322   2      1.2220520537517374      1.5026652514021266      78.555105514158299
   323   2     -1.3062558342948236      8.6206774150161873      88.537744429319901
   324   2      8.5243992690193018      8.8536986488063967      51.351607063202536
   325   2      6.1914722364935271      10.035014891413992      47.335240406664184
   326   2      10.751857234839356      1.3776566962920318       55.87178085336658
   327   2       11.33552752857995      1.2349207614403011      61.045264224437055
   328   2      9.9406730042593203      1.5239334474117503      66.736237630346025
   329   2    -0.20601610857138269      0.7107776162380669       68.65545389793779
   330   2    -0.13443718046469494       3.164746168532429      71.381061731417773
   331   2      1.9111321596006681      1.3443005275019424      73.236084088607086
   332   2      10.921305504388242      1.1599055052904519      76.957992663271341
   333   2     -3.0546838862668708      10.818766622110694      88.814400338062271
   334   2      5.2955534148174257      11.149674130117809      51.253015950788281
   335   2      10.347769467587646      1.6873319816102472      48.644967784902249
   336   2    -0.16742916746240105      2.1904828816601838      53.295587058692703
   337   2      10.375274585806155     0.85072168457096053      58.729355966348315
   338   2      10.891408080291866      3.4064152754873112      65.406347457875043
   339   2    -0.28560533819514067      3.6048308377188651      68.195847422453127
   340   2     -1.2928509511043134      4.7869232310195713      73.568297529060175
   341   2      0.2218103031707345      3.2263141123702028      76.150022956475297
   342   2      11.247478193771608       2.538924815983941      80.283158467652413
   343   2      10.442182674165084      3.4362649148300339      86.799493117717873
   344   2      9.7827221267855542      2.0074726325120404      51.553061836387322
   345   2      9.6411304996378995      4.1904413370309728      47.022356916470621
   346   2    -0.52924443718286174      4.8163937964081365      53.717269104523091
   347   2      10.956670303355141      3.3462871804009184      59.455083857621673
   348   2     -1.1775559419784443      5.7869617153380224      63.253734676043905
   349   2      1.9654857926183922      5.0439034275866259      70.188663750334186
   350   2     0.35043307648977123      6.1686167316472744      71.680414945688128
   351   2     0.41742677614185331      4.7853553108926725      78.602892341482217
   352   2    -0.67842349720796269       7.331645925939597      78.581950316710035
   353   2       1.059257544937888      4.2774099293806049       86.82392517029291
   354   2    -0.25739824627391794      3.8815166956370484       51.18751209465924
   355   2    -0.65352447239937905      5.6266883869290645      45.249780450623433
   356   2      9.5950703359515366       6.098238431994921      55.146531471869835
   357   2    -0.39400721383908549      5.7210771666989118      60.619602778413018
   358   2     -1.0465941184037255      7.9574664786950935      62.160470470364189