120
Lattice="9.166203 0.0 0.0 0.0 9.006287 0.0 0.0 3.680048 15.400204" Properties=species:S:1:pos:R:3:forces:R:3:magmoms:R:1 bandgap=4.4868 e_per_atom_relaxed=-5.483811215416667 mp_id=mp-559674 energy_per_atom=-5.48243449 ef_per_atom_relaxed=-5.483811215416667 corrected_total_energy=-657.8921388 ef_per_atom=-0.43381535816071415 task_id=mp-665597 calc_id=0 ionic_step=0 pretrained=T config_weight=1.0 head=pbe_mp REF_energy=-645.4561388 REF_stress="-0.0004285449001603607 -0.0 -0.0 -0.0 -0.00022138989259679002 -4.010454850347046e-05 -0.0 -4.010454850347046e-05 -0.00018842343352211774" pbc="T T T"
P        5.63019353       6.65610440      12.93886640       0.00949129      -0.00364861      -0.00301066       0.00000000
P        3.53600947       6.03023060       2.46133760      -0.00949129       0.00364861       0.00301066       0.00000000
P        1.04709203       7.87025460      10.16143960       0.00949129       0.00364861       0.00301066       0.00000000
P        8.11911097       4.81608040       5.23876440      -0.00949129      -0.00364861      -0.00301066       0.00000000
H        5.55895380       8.25405106       2.58061218      -0.00534426      -0.01274618      -0.00404934       0.00000000
H        0.34863653      10.81078012       9.34316516      -0.00385437      -0.01260883       0.00266243       0.00000000
H        8.15784734       7.48506357       0.73231050       0.01498267       0.00642705       0.00557500       0.00000000
H        6.75907560       7.68419989      14.86995958      -0.00544246      -0.00265289      -0.00521681       0.00000000
H        8.31318698       6.80434424       6.48488730      -0.00157240      -0.01130511      -0.01089444       0.00000000
H        3.07647105       4.75590167       9.33880691      -0.00735254       0.00938611       0.00288301       0.00000000
H        1.50663045       2.91587767       1.63870491       0.00735254       0.00938611       0.00288301       0.00000000
H        5.16724528       4.04459774      11.01750614       0.01409790       0.00630894       0.00407506       0.00000000
H        2.17597410       6.84215911       8.23034642      -0.00544246       0.00265289       0.00521681       0.00000000
H        7.32937841       1.06208479       3.94065040      -0.00813455       0.00744855      -0.00401561       0.00000000
H        1.20709727       2.19068303       6.83162290      -0.00919042       0.01549850      -0.00148811       0.00000000
H        0.97585230       2.59225994       5.11948982      -0.00534426       0.01274618       0.00404934       0.00000000
H        7.41359749       1.47494878       2.17135176      -0.00629010       0.01602884       0.00448516       0.00000000
H        1.75260551      11.21138622      13.22885224       0.00629010      -0.01602884      -0.00448516       0.00000000
H        8.28327766       8.01513456       8.83468123       0.01503366      -0.00788977       0.01450624       0.00000000
H        8.70039490       3.97439042       7.49236865       0.00140765       0.00783117      -0.01079746       0.00000000
H        5.43611752       8.64436824      14.18498930       0.00157240      -0.01130511      -0.01089444       0.00000000
H        2.40712740       5.00213511       0.53024442       0.00544246       0.00265289       0.00521681       0.00000000
H        1.00835566       5.20127143      14.66789350      -0.01498267      -0.00642705      -0.00557500       0.00000000
H        0.58414378      10.48176126      12.08279986       0.01409790      -0.00630894      -0.00407506       0.00000000
H        6.90476323       7.50017756       4.54866585       0.00560024      -0.00597648       0.00323121       0.00000000
H        0.46580810       8.71194458       7.90783535      -0.00140765      -0.00783117       0.01079746       0.00000000
H        2.74627691       9.78422621       3.75945160      -0.00813455      -0.00744855       0.00401561       0.00000000
H        2.26143977       5.18615744      10.85153815      -0.00560024       0.00597648      -0.00323121       0.00000000
H        8.81756647       1.87555488       6.05703884       0.00385437       0.01260883      -0.00266243       0.00000000
H        4.93173803       3.71557888      13.75714084      -0.00385437       0.01260883      -0.00266243       0.00000000
H        8.58205922       2.20457374       3.31740414      -0.01409790       0.00630894       0.00407506       0.00000000
H        1.83682459      11.62425021      11.45955360       0.00813455      -0.00744855       0.00401561       0.00000000
H        6.41992609       2.90210879      11.64075240       0.00813455       0.00744855      -0.00401561       0.00000000
H        0.33473140       6.69524541      13.90695402      -0.01017434      -0.00959417       0.00048733       0.00000000
H        6.84454127       9.34020156      12.24876785      -0.00560024      -0.00597648       0.00323121       0.00000000
H        0.88292534       4.67120044       6.56552277      -0.01503366       0.00788977      -0.01450624       0.00000000
H        3.62126432       6.16611176      10.27409210      -0.01380727       0.00251795       0.00373968       0.00000000
H        5.04890960       5.81441442      15.19247065      -0.00140765       0.00783117      -0.01079746       0.00000000
H        3.60724920       4.43228394      12.81959182       0.00534426       0.01274618       0.00404934       0.00000000
H        5.46602684       6.17511056       1.13457923      -0.01503366      -0.00788977       0.01450624       0.00000000
H        3.72728062       3.48368400       5.16237938       0.01762996      -0.00426172       0.00256031       0.00000000
H        4.23446497       8.97075612       1.64306316       0.00385437      -0.01260883       0.00266243       0.00000000
H        4.24837010       4.85522141       6.20685202       0.01017434      -0.00959417       0.00048733       0.00000000
H        6.99022890       5.84417589       7.16985758       0.00544246      -0.00265289      -0.00521681       0.00000000
H        2.83049599       9.37136222       5.52875024      -0.00629010      -0.01602884      -0.00448516       0.00000000
H        5.59145716       9.32508757       8.43241250      -0.01498267       0.00642705       0.00557500       0.00000000
H        5.43892238       9.20265100      10.23782462      -0.01762996       0.00426172      -0.00256031       0.00000000
H        3.37600423       4.03070703      14.53172490       0.00919042       0.01549850      -0.00148811       0.00000000
H        3.57474584       3.36124743       6.96779150       0.01498267      -0.00642705      -0.00557500       0.00000000
H        0.96183718       4.32608776       2.57399010       0.01380727       0.00251795       0.00373968       0.00000000
H        3.70017616       6.51122444      14.26562477       0.01503366       0.00788977      -0.01450624       0.00000000
H        8.83147160       5.99108959       1.49324998       0.01017434       0.00959417      -0.00048733       0.00000000
H        2.32166173       3.34613344       3.15143615       0.00560024       0.00597648      -0.00323121       0.00000000
H        8.20436582       8.36024724      12.82621390      -0.01380727      -0.00251795      -0.00373968       0.00000000
H        6.08973195       7.93043333       6.06139709       0.00735254      -0.00938611      -0.00288301       0.00000000
H        8.31038212       7.36262700       2.53772262       0.01762996       0.00426172      -0.00256031       0.00000000
H        6.33570701       3.31497278       9.87145376       0.00629010       0.01602884       0.00448516       0.00000000
H        0.85301602       5.88199076       8.91531670       0.00157240       0.01130511       0.01089444       0.00000000
H        7.95910573      10.49565197       8.56858110       0.00919042      -0.01549850       0.00148811       0.00000000
H        8.19035070      10.09407506      10.28071418       0.00534426      -0.01274618      -0.00404934       0.00000000
H        3.73008548       4.04196676       1.21521470      -0.00157240       0.01130511       0.01089444       0.00000000
H        4.91783290       7.83111359       9.19335198      -0.01017434       0.00959417      -0.00048733       0.00000000
H        4.11729340       6.87192058       0.20773335       0.00140765      -0.00783117       0.01079746       0.00000000
H        7.65957255       9.77045733      13.76149909      -0.00735254      -0.00938611      -0.00288301       0.00000000
H        0.85582088       5.32370800      12.86248138      -0.01762996      -0.00426172       0.00256031       0.00000000
H        5.79019877       8.65562797       0.86847910      -0.00919042      -0.01549850       0.00148811       0.00000000
H        3.99895772       8.64173726       4.38269786      -0.01409790      -0.00630894      -0.00407506       0.00000000
H        5.54493868       6.52022324       5.12611190       0.01380727      -0.00251795      -0.00373968       0.00000000
C        1.74781159       6.47312396       9.17294671      -0.00079690       0.00494888       0.00610236       0.00000000
C        5.01138317       8.91931034       9.27232423      -0.01137901       0.00574652      -0.00101807       0.00000000
C        7.41839141       6.21321104       6.22725729       0.00079690      -0.00494888      -0.00610236       0.00000000
C        8.73792133       7.07928634       1.57222223       0.01137901       0.00574652      -0.00101807       0.00000000
C        4.09692609       4.42845380      13.80406526       0.00528555       0.00938883      -0.00301185       0.00000000
C        2.83528991       4.63309996       1.47284471       0.00079690       0.00494888       0.00610236       0.00000000
C        4.15481983       3.76702466       6.12787977       0.01137901      -0.00574652       0.00101807       0.00000000
C        0.42828167       5.60704866      13.82798177      -0.01137901      -0.00574652       0.00101807       0.00000000
C        7.55920262       1.83366949       3.19823737      -0.00542180       0.00855002      -0.00010955       0.00000000
C        2.97610112       9.01264151       4.50186463      -0.00542180      -0.00855002       0.00010955       0.00000000
C        1.60700038      10.85266551      12.20196663       0.00542180      -0.00855002       0.00010955       0.00000000
C        0.01888238       3.98667873       6.50778741      -0.00906568       0.00617321      -0.00372718       0.00000000
C        4.60198388       6.85963227       1.19231459      -0.00906568      -0.00617321       0.00372718       0.00000000
C        9.14732062       8.69965627       8.89241659       0.00906568      -0.00617321       0.00372718       0.00000000
C        5.06927691       8.25788120       1.59613874      -0.00528555      -0.00938883       0.00301185       0.00000000
C        7.31746235       8.92442217      13.14918698      -0.00738664      -0.00823637      -0.00445390       0.00000000
C        6.43184215       7.08439817       5.44908498       0.00738664      -0.00823637      -0.00445390       0.00000000
C        1.84874065       3.76191283       2.25101702       0.00738664       0.00823637       0.00445390       0.00000000
C        6.33091309       8.05323504      13.92735929      -0.00079690      -0.00494888      -0.00610236       0.00000000
C        8.68002759      10.09790520       9.29624074       0.00528555      -0.00938883       0.00301185       0.00000000
C        6.19010188       3.67369349      10.89833937       0.00542180       0.00855002      -0.00010955       0.00000000
C        4.56421912       5.82670273      14.20788941       0.00906568       0.00617321      -0.00372718       0.00000000
C        0.48617541       2.58842980       6.10396326      -0.00528555       0.00938883      -0.00301185       0.00000000
C        2.73436085       5.60193683       9.95111902      -0.00738664       0.00823637       0.00445390       0.00000000
S        6.42916562       3.18280119       3.41698186      -0.00582388       0.00382261       0.00699383       0.00000000
S        2.73703738       9.50353381      11.98322214       0.00582388      -0.00382261      -0.00699383       0.00000000
S        7.98318534       4.87080613      13.98572606      -0.00721749      -0.00453171       0.00133974       0.00000000
S        3.40008384       9.65555287       9.11457994      -0.00721749       0.00453171      -0.00133974       0.00000000
S        5.76611916       3.03078213       6.28562406       0.00721749      -0.00453171       0.00133974       0.00000000
S        1.84606412       7.66350981       4.28312014      -0.00582388      -0.00382261      -0.00699383       0.00000000
S        7.32013888       5.02282519      11.11708386       0.00582388       0.00382261       0.00699383       0.00000000
S        1.18301766       7.81552887       1.41447794       0.00721749       0.00453171      -0.00133974       0.00000000
N        6.71202548       3.72319310       5.03026103       0.00080734      -0.00100768       0.00391803       0.00000000
N        2.12892398       7.12311790       2.66984097       0.00080734       0.00100768      -0.00391803       0.00000000
N        2.45417752       8.96314190      10.36994297      -0.00080734       0.00100768      -0.00391803       0.00000000
N        7.03727902       5.56321710      12.73036303      -0.00080734      -0.00100768       0.00391803       0.00000000
O        8.67443621       4.51857045      11.06808041      -0.00807837       0.00757898       0.00578323       0.00000000
O        5.07486829       2.67854645       3.36797841       0.00807837       0.00757898       0.00578323       0.00000000
O        7.39553090       5.35147315      15.21606376      -0.00316262      -0.00423625      -0.00251435       0.00000000
O        6.81018634       4.26092073       2.53619800      -0.00330563       0.00576296       0.00943060       0.00000000
O        8.08188702       3.44205842      13.77870112      -0.00522191       0.00144194       0.00062855       0.00000000
O        0.49176679       8.16776455       4.33212359       0.00807837      -0.00757898      -0.00578323       0.00000000
O        2.35601666       8.42541427      12.86400600       0.00330563      -0.00576296      -0.00943060       0.00000000
O        1.08431598       9.24427658       1.62150288       0.00522191      -0.00144194      -0.00062855       0.00000000
O        1.77067210       7.33486185       0.18414024       0.00316262       0.00423625       0.00251435       0.00000000
O        4.09133471      10.00778855      12.03222559      -0.00807837      -0.00757898      -0.00578323       0.00000000
O        3.49878552      11.08430058       9.32160488      -0.00522191      -0.00144194      -0.00062855       0.00000000
O        6.93911816       6.10094473      10.23630000       0.00330563       0.00576296       0.00943060       0.00000000
O        2.81242940       9.17488585       7.88424224      -0.00316262       0.00423625       0.00251435       0.00000000
O        5.66741748       1.60203442       6.07859912       0.00522191       0.00144194       0.00062855       0.00000000
O        2.22708484       6.58539027       5.16390400      -0.00330563      -0.00576296      -0.00943060       0.00000000
O        6.35377360       3.51144915       7.51596176       0.00316262      -0.00423625      -0.00251435       0.00000000
