2
Lattice="1.619616 -2.805257 0.0 1.619616 2.805257 0.0 0.0 0.0 5.17222" Properties=species:S:1:pos:R:3:forces:R:3:magmoms:R:1 bandgap=0.0 e_per_atom_relaxed=-8.54770063 mp_id=mp-131 energy_per_atom=-8.546244515 ef_per_atom_relaxed=-8.54770063 REF_energy=-17.09248903 ef_per_atom=0.001456114999999869 task_id=mp-911308 calc_id=0 ionic_step=0 pretrained=T config_weight=1.0 head=pbe_mp energy=-17.09248903 stress="0.0001183034489077473 -0.0 -0.0 -0.0 0.00011830343018321992 -0.0 -0.0 -0.0 -0.001659141373984528" pbc="T T T"
Zr       1.61961600       0.93508754       1.29305500       0.00000000       0.00000000       0.00000000       0.00000000
Zr       1.61961600      -0.93508754       3.87916500       0.00000000       0.00000000       0.00000000       0.00000000
36
Lattice="10.37100597 0.0 0.28755775 0.0 3.93065625 0.0 -3.40966293 0.0 10.8601883" Properties=species:S:1:pos:R:3:forces:R:3:magmoms:R:1 bandgap=3.9803999999999995 e_per_atom_relaxed=-8.303573158888888 mp_id=mp-772105 energy_per_atom=-8.295459758611111 ef_per_atom_relaxed=-8.303573158888888 REF_energy=-298.63655131 ef_per_atom=-3.222901501898148 task_id=mp-772105 calc_id=0 ionic_step=2 pretrained=T config_weight=1.0 head=pbe_mp energy=-284.89655131 stress="0.0021154971031268717 -0.0 -0.000554028381438232 -0.0 0.002678289224977811 -0.0 -0.000554028381438232 -0.0 0.0015942470117461848" pbc="T T T"
Li       0.80702674       1.02026260       0.54435002       0.01581560      -0.02068789       0.05002555       0.00000000d
Li       1.51175470       1.16647055       3.65635587       0.01861366       0.00249680       0.02374635       0.00000000
Li       1.96891682       3.13179867       1.91751716      -0.01861366       0.00249680      -0.02374635       0.00000000
Li       2.67364478       2.98559072       5.02952300      -0.01581560      -0.02068789      -0.05002555       0.00000000
Li       4.28769826       0.94506553       6.11822305       0.01581560       0.02068789       0.05002555       0.00000000
Li       4.99242622       0.79885758       9.23022889       0.01861366      -0.00249680       0.02374635       0.00000000
Li       5.44958834       2.76418570       7.49139018      -0.01861366      -0.00249680      -0.02374635       0.00000000
Li       6.15431630       2.91039365      10.60339603      -0.01581560       0.02068789      -0.05002555       0.00000000
Zr      -0.98591724       2.69158172       9.34307124      -0.10851550       0.04344961       0.15206610       0.00000000
Zr      -0.89316022       3.38431166       3.96627273       0.07730620       0.02575539       0.02823683       0.00000000
Zr       1.05692583       0.72625360       7.09099009       0.10851550       0.04344961      -0.15206610       0.00000000
Zr       2.58751130       2.51167272       9.54014576       0.07730620      -0.02575539       0.02823683       0.00000000
Zr       4.37383174       1.41898353       1.60760029      -0.07730620       0.02575539      -0.02823683       0.00000000
Zr       5.90441721       3.20440265       4.05675596      -0.10851550      -0.04344961       0.15206610       0.00000000
Zr       7.85450326       0.54634459       7.18147332      -0.07730620      -0.02575539      -0.02823683       0.00000000
Zr       7.94726028       1.23907453       1.80467481       0.10851550      -0.04344961      -0.15206610       0.00000000
O       -2.29584723       2.94074056      10.77096407       0.11944333       0.02978901      -0.07083524       0.00000000
O       -0.89547269       0.69268088       8.58178018      -0.04668268       0.02618969       0.11661522       0.00000000
O       -0.99187174       1.33497079       3.16265364       0.01996855      -0.08000881      -0.04621777       0.00000000
O       -0.58386829       0.52476875       5.81347071      -0.01319528       0.08600628       0.04162687       0.00000000
O        0.65487688       2.49009687      10.62059062       0.01319528       0.08600628      -0.04162687       0.00000000
O        1.07255445       3.13902652       3.74263802      -0.14763218       0.01677027       0.00699968       0.00000000
O        0.96648128       2.65800901       7.85228115       0.04668268       0.02618969      -0.11661522       0.00000000
O        2.36685582       0.97541243       5.66309726      -0.11944333       0.02978901       0.07083524       0.00000000
O        2.40811707       1.17369840       1.83123501       0.14763218       0.01677027      -0.00699968       0.00000000
O        2.48879978       0.63035734       8.73652667       0.01996855       0.08000881      -0.04621777       0.00000000
O        4.47254326       3.30029891       2.41121938      -0.01996855      -0.08000881       0.04621777       0.00000000
O        4.55322597       2.75695785       9.31651104      -0.14763218      -0.01677027       0.00699968       0.00000000
O        4.59448722       2.95524382       5.48464879       0.11944333      -0.02978901      -0.07083524       0.00000000
O        5.99486176       1.27264724       3.29546490      -0.04668268      -0.02618969       0.11661522       0.00000000
O        5.88878859       0.79162973       7.40510803       0.14763218      -0.01677027      -0.00699968       0.00000000
O        6.30646616       1.44055938       0.52715543      -0.01319528      -0.08600628       0.04162687       0.00000000
O        7.54521133       3.40588750       5.33427534       0.01319528      -0.08600628      -0.04162687       0.00000000
O       -2.41779119       2.59568546       7.69753466      -0.01996855       0.08000881       0.04621777       0.00000000
O        7.85681573       3.23797537       2.56596587       0.04668268      -0.02618969      -0.11661522       0.00000000
O        9.25719027       0.98991569       0.37678198      -0.11944333      -0.02978901       0.07083524       0.00000000
30
Lattice="5.74966691 5.49e-06 -1.855e-05 -2.87482865 4.97934409 6.67e-06 -3.704e-05 -6.73e-06 10.9058906" Properties=species:S:1:pos:R:3:forces:R:3:magmoms:R:1 bandgap=4.0218 e_per_atom_relaxed=-5.97570447 mp_id=mp-770648 energy_per_atom=-5.975086774666667 ef_per_atom_relaxed=-5.97570447 REF_energy=-179.25260324 ef_per_atom=-2.4079656900555557 task_id=mp-770648 calc_id=0 ionic_step=2 pretrained=T config_weight=1.0 head=pbe_mp energy=-171.00860324 stress="0.0013230312766276512 -7.651466037420287e-07 -3.567284608825569e-06 -7.651466037420287e-07 0.0013279165432695346 -1.2297957506184079e-06 -3.567284608825569e-06 -1.2297957506184079e-06 -0.0012505412224774362" pbc="T T T"
Li       3.80609045       3.36615120       8.37892500      -0.03647706       0.06347117      -0.00841298       0.00000000
Li      -1.69812641       2.94124268       1.38797384       0.01422918      -0.02461670      -0.00556730       0.00000000
Li       4.57279229       2.03814116       6.84088073      -0.01401285       0.02481173      -0.00566502       0.00000000
Li      -0.93137792       1.61318941       2.92599917       0.03659096      -0.06336380      -0.00854930       0.00000000
Li      -0.00003122       3.31965873       4.43866618      -0.00021568      -0.00005456      -0.03031448       0.00000000
Li      -0.00008967       3.31950375       9.89161737       0.00011989      -0.00017948      -0.03015828       0.00000000
Li       0.93124176       1.61297327       8.37893879      -0.03635301      -0.06291441      -0.00829253       0.00000000
Li       1.17670678       2.03832029       1.38788107       0.01434248       0.02446652      -0.00580463       0.00000000
Li       1.69796227       2.94099065       6.84081352      -0.01429691      -0.02479375      -0.00575192       0.00000000
Li       1.86258966       0.00010872       2.92598347      -0.07298231      -0.00020748      -0.00845106       0.00000000
Li       1.94345694       3.36636162       2.92596488       0.03655607       0.06299240      -0.00849499       0.00000000
Li      -0.52137356       4.97923187       6.84086706       0.02839065       0.00027099      -0.00566031       0.00000000
Li       2.87479887       1.65969410       9.89160591      -0.00021387       0.00002146      -0.03013139       0.00000000
Li       2.87477076       1.65984904       4.43865309      -0.00004804       0.00006231      -0.03030709       0.00000000
Li       3.39600882       0.00011417       1.38788195      -0.02840425      -0.00022375      -0.00579251       0.00000000
Li       1.01209306       4.97924319       8.37893557       0.07323060       0.00017785      -0.00840548       0.00000000
Zr       2.87476980       4.97924589      10.84696183       0.00079148       0.00092425      -0.05783075       0.00000000
Zr      -0.00008596       0.00005598       5.39405731       0.00003333       0.00004001      -0.05837776       0.00000000
O        3.83508108       3.31594944      10.34447331      -0.06614206       0.11470534       0.03959466       0.00000000
O        4.78923295       1.66347476       4.89152165       0.06765091      -0.11728987       0.04056056       0.00000000
O       -0.00000531       3.31964326       2.32039597      -0.00019052      -0.00016128       0.01243168       0.00000000
O       -2.87470986       4.97914993       1.95493522      -0.00039709       0.00064717       0.01681412       0.00000000
O        0.00007451       0.00018380       7.40797124      -0.00052256      -0.00069916       0.01480923       0.00000000
O       -0.00005019       3.31951108       7.77333232       0.00000312      -0.00001399       0.01255938       0.00000000
O        0.96025100       1.66324705      10.34453787      -0.06636128      -0.11503388       0.03964562       0.00000000
O        1.92062167       0.00008416       4.89154868      -0.13494830      -0.00016768       0.04036847       0.00000000
O        1.91436593       3.31601132       4.89155907       0.06779009       0.11695554       0.04059064       0.00000000
O        2.87479779       1.65970019       7.77332817      -0.00013301       0.00020226       0.01254678       0.00000000
O        2.87480001       1.65985050       2.32037087       0.00007731      -0.00006925       0.01254598       0.00000000
O        0.95416056       4.97926214      10.34452917       0.13189276       0.00004006       0.03950068       0.00000000
8
Lattice="-2.177346 2.177346 4.475215 2.177346 -2.177346 4.475215 2.177346 2.177346 -4.475215" Properties=species:S:1:pos:R:3:forces:R:3:magmoms:R:1 bandgap=0.0 e_per_atom_relaxed=-8.03918653 mp_id=mp-755253 energy_per_atom=-8.038138935000001 ef_per_atom_relaxed=-8.03918653 REF_energy=-64.30511148000001 ef_per_atom=-2.9500053297916673 task_id=mp-886944 calc_id=0 ionic_step=0 pretrained=T config_weight=1.0 head=pbe_mp energy=-61.55711148 stress="-0.001475740601444682 -0.0 -0.0 -0.0 -0.001475740601444682 -0.0 -0.0 -0.0 -0.002080808511820222" pbc="T T T"
Li       0.00000000       0.00000000       0.00000000       0.00000000       0.00000000       0.00000000       0.00000000
Li       0.00000000       2.17734600       2.23760750       0.00000000       0.00000000       0.00000000       0.00000000
Zr       0.00000000       0.00000000       4.47521500       0.00000000       0.00000000       0.00000000       0.00000000
Zr       2.17734600       0.00000000       2.23760750       0.00000000       0.00000000       0.00000000       0.00000000
O        0.00000000       0.00000000       6.76650718       0.00000000       0.00000000      -0.01974947       0.00000000
O        0.00000000       0.00000000       2.18392282       0.00000000       0.00000000       0.01974947       0.00000000
O       -0.00000000       2.17734600       4.42153032       0.00000000       0.00000000       0.01974947       0.00000000
O        0.00000000       2.17734600       0.05368468       0.00000000       0.00000000      -0.01974947       0.00000000
12
Lattice="8.046617 2.787678 0.0 -8.046617 2.787678 0.0 0.0 0.0 5.406859" Properties=species:S:1:pos:R:3:forces:R:3:magmoms:R:1 bandgap=0.0 e_per_atom_relaxed=-1.8535433941666666 mp_id=mp-1103107 energy_per_atom=-1.8535433941666666 ef_per_atom_relaxed=-1.8535433941666666 REF_energy=-22.24252073 ef_per_atom=0.055379459166666756 task_id=mp-1927602 calc_id=0 ionic_step=0 pretrained=T config_weight=1.0 head=pbe_mp energy=-22.24252073 stress="0.005449988419903425 -0.0 -0.0 -0.0 -0.0024558514516553856 -0.0 -0.0 -0.0 -0.0026025499909728806" pbc="T T T"
Li       0.00000000       4.21470709       3.23226897       0.00000000      -0.00129308      -0.03696877      -0.00000000
Li       0.00000000       1.36064891       2.17459003       0.00000000       0.00129308       0.03696877      -0.00000000
Li       0.00000000       4.14832691       0.52883947      -0.00000000       0.00129308      -0.03696877      -0.00000000
Li       0.00000000       1.42702909       4.87801953      -0.00000000      -0.00129308       0.03696877      -0.00000000
Li       2.63235419       3.44774440       4.07607420      -0.00863024      -0.01744831       0.00054929       0.00000000
Li       2.63235419       2.12761160       1.33078480      -0.00863024       0.01744831      -0.00054929       0.00000000
Li      -5.41426281       2.12761160       1.37264470      -0.00863024       0.01744831       0.00054929       0.00000000
Li      -5.41426281       3.44774440       4.03421430      -0.00863024      -0.01744831      -0.00054929       0.00000000
Li      -2.63235419       2.12761160       1.33078480       0.00863024       0.01744831      -0.00054929       0.00000000
Li      -2.63235419       3.44774440       4.07607420       0.00863024      -0.01744831       0.00054929       0.00000000
Li       5.41426281       3.44774440       4.03421430       0.00863024      -0.01744831      -0.00054929       0.00000000
Li       5.41426281       2.12761160       1.37264470       0.00863024       0.01744831       0.00054929       0.00000000
6
Lattice="0.0 4.06299005 0.0 2.03175861 -2.03149553 5.39269059 4.06298128 0.0 0.0002058" Properties=species:S:1:pos:R:3:forces:R:3:magmoms:R:1 bandgap=3.9850000000000003 e_per_atom_relaxed=-9.946599703333332 mp_id=mp-754403 energy_per_atom=-9.946591153333333 ef_per_atom_relaxed=-9.946599703333332 REF_energy=-59.67954692 ef_per_atom=-3.798720630833334 task_id=mp-754403 calc_id=0 ionic_step=2 pretrained=T config_weight=1.0 head=pbe_mp energy=-56.93154692 stress="-0.004657297899075672 -0.0 1.4996292972995055e-05 -0.0 -0.0046439698241788245 4.868377118188941e-10 1.4996292972995055e-05 4.868377118188941e-10 -0.005247710084423671" pbc="T T T"
Zr       4.06276044      -0.00000002       0.00021328       0.00183990       0.00000000      -0.00013094       0.00000000
Zr       4.06333611       2.03149479       2.69649216      -0.00183990       0.00000000       0.00013094       0.00000000
O        2.03168638       2.03149269       3.21636504      -0.00055507       0.00000000       0.04390230       0.00000000
O        4.06217056      -0.00000226       2.17649372       0.00147186       0.00000000      -0.04345177       0.00000000
O        4.06318749       2.03149660       4.87282519       0.00055507       0.00000000      -0.04390230       0.00000000
O        4.06392598       2.03149703       0.52021173      -0.00147186       0.00000000       0.04345177       0.00000000
30
Lattice="6.207555 0.0 0.0 0.0 5.465288 0.0 0.0 1.725916 10.051027" Properties=species:S:1:pos:R:3:forces:R:3:magmoms:R:1 bandgap=3.784 e_per_atom_relaxed=-8.007519050666666 mp_id=mp-765573 energy_per_atom=-8.007395601666666 ef_per_atom_relaxed=-8.007519050666666 REF_energy=-240.22186804999998 ef_per_atom=-3.1498997981111105 task_id=mp-784773 calc_id=0 ionic_step=0 pretrained=T config_weight=1.0 head=pbe_mp energy=-229.22986805 stress="0.0015570501077180618 -0.0 -0.0 -0.0 0.003485607746049567 -0.0017555922695935524 -0.0 -0.0017555922695935524 0.0027095201513004127" pbc="T T T"
Li       3.89427859       5.77526526       9.97433766       0.04386769      -0.03631948       0.01962682       0.00000000
Li       2.31327641       1.41593874       0.07668934      -0.04386769       0.03631948      -0.01962682       0.00000000
Li       3.89427859       2.27889674       5.10220284       0.04386769       0.03631948      -0.01962682       0.00000000
Li       2.31327641       4.91230726       4.94882416      -0.04386769      -0.03631948       0.01962682       0.00000000
Li       0.88475040       4.02708100       7.53827025       0.11919005       0.00000000       0.00000000       0.00000000
Li       5.44454096       1.29443700       7.53827025       0.06536670       0.00000000       0.00000000       0.00000000
Li       0.76301404       0.43147900       2.51275675      -0.06536670       0.00000000       0.00000000       0.00000000
Li       5.32280460       3.16412300       2.51275675      -0.11919005       0.00000000       0.00000000       0.00000000
Zr       0.86106858       4.04951247       0.20001544       0.00283362      -0.09756042       0.04043014       0.00000000
Zr       2.46369167       1.29443700       7.53827025       0.03089037       0.00000000       0.00000000       0.00000000
Zr       5.34648642       3.14169153       9.85101156      -0.00283362       0.09756042      -0.04043014       0.00000000
Zr       3.74386333       0.43147900       2.51275675      -0.03089037       0.00000000       0.00000000       0.00000000
Zr       0.86106858       2.27873353       4.82549806       0.00283362       0.09756042      -0.04043014       0.00000000
Zr       5.34648642       4.91247047       5.22552894      -0.00283362      -0.09756042       0.04043014       0.00000000
O        3.89114998       5.98774429       6.27775085      -0.00458685      -0.02258415       0.03524504       0.00000000
O        3.89114998       2.06641771       8.79878965      -0.00458685       0.02258415      -0.03524504       0.00000000
O        0.77189084       2.11251723       8.82994783       0.02674443       0.03132918       0.01720944       0.00000000
O        5.43566416       5.07868677       1.22107917      -0.02674443      -0.03132918      -0.01720944       0.00000000
O        0.64926680       2.25488426       1.11345277      -0.04848153       0.00854960      -0.03512825       0.00000000
O        2.22378209       5.11539071       8.83910432      -0.01755078       0.05081332       0.06289266       0.00000000
O        0.77189084       5.94164477       6.24659267       0.02674443      -0.03132918      -0.01720944       0.00000000
O        5.55828820       4.93631974       8.93757423       0.04848153      -0.00854960       0.03512825       0.00000000
O        2.22378209       2.93877129       6.23743618      -0.01755078      -0.05081332      -0.06289266       0.00000000
O        3.98377291       4.25243271       3.81359082       0.01755078       0.05081332       0.06289266       0.00000000
O        3.98377291       2.07581329       1.21192268       0.01755078      -0.05081332      -0.06289266       0.00000000
O        5.43566416       1.24955923       3.80443433      -0.02674443       0.03132918       0.01720944       0.00000000
O        2.31640502       5.12478629       1.25223735       0.00458685      -0.02258415       0.03524504       0.00000000
O        0.64926680       4.07336174       3.91206073      -0.04848153      -0.00854960       0.03512825       0.00000000
O        2.31640502       1.20345971       3.77327615       0.00458685       0.02258415      -0.03524504       0.00000000
O        5.55828820       3.11784226       6.13896627       0.04848153       0.00854960      -0.03512825       0.00000000
4
Lattice="3.07106993 -5e-08 -0.0 -1.53553605 2.65962482 0.0 0.0 -0.0 9.82536272" Properties=species:S:1:pos:R:3:forces:R:3:magmoms:R:1 bandgap=0.0 e_per_atom_relaxed=-1.9061253275 mp_id=mp-976411 energy_per_atom=-1.90605095 ef_per_atom_relaxed=-1.9061253275 REF_energy=-7.6242038 ef_per_atom=0.0028719033333333144 task_id=mp-976411 calc_id=0 ionic_step=2 pretrained=T config_weight=1.0 head=pbe_mp energy=-7.6242038 stress="-1.0518965126070076e-05 6.241509125883258e-12 -0.0 6.241509125883258e-12 -1.0518965126070076e-05 0.0 -0.0 0.0 -9.567166191918508e-06" pbc="T T T"
Li       0.00000000       0.00000000       0.00000000      -0.00000000      -0.00000000       0.00000000      -0.00200000
Li       0.00000081       1.77307876       2.45634068       0.00000000      -0.00000000       0.00000000       0.00200000
Li       0.00000000       0.00000000       4.91268136      -0.00000000       0.00000000       0.00000000      -0.00200000
Li       1.53553921       0.88654069       7.36902204      -0.00000000       0.00000000       0.00000000       0.00300000
6
Lattice="0.0 -3.93410073 0.0 -4.2130667 0.0 0.89511477 -0.22782585 0.0 -6.35977474" Properties=species:S:1:pos:R:3:forces:R:3:magmoms:R:1 bandgap=0.03049999999999997 e_per_atom_relaxed=-8.033883676666667 mp_id=mp-1206559 energy_per_atom=-8.032989498333333 ef_per_atom_relaxed=-8.033883676666667 REF_energy=-48.197936989999995 ef_per_atom=-3.0890168174999997 task_id=mp-1206559 calc_id=0 ionic_step=4 pretrained=T config_weight=1.0 head=pbe_mp energy=-45.44993699 stress="0.0006260263737334894 -0.0 -0.0024435997999054065 -0.0 0.0003349827996691238 -0.0 -0.0024435997999054065 -0.0 0.0012399298081181937" pbc="T T T"
La      -1.00520077      -2.95057555      -4.91643687      -0.01619744      -0.00000000      -0.03914251       0.00800000
La      -3.43569178      -0.98352518      -0.54822310       0.01619744       0.00000000       0.03914251       0.00800000
O       -3.58737838      -2.95057555      -2.15028270      -0.00236954       0.00000000       0.00551151       0.73600000
O       -0.85351417      -0.98352518      -3.31437727       0.00236954      -0.00000000      -0.00551151       0.73600000
O       -3.35775887      -2.95057555      -5.49704208      -0.04342585      -0.00000000       0.01942960       0.09200000
O       -1.08313368      -0.98352518       0.03238211       0.04342585      -0.00000000      -0.01942960       0.09200000
30
Lattice="3.030508 5.279309 0.0 -3.030508 5.279309 0.0 0.0 1.850548 10.160487" Properties=species:S:1:pos:R:3:forces:R:3:magmoms:R:1 bandgap=4.0047 e_per_atom_relaxed=-7.077727495333333 mp_id=mp-5418 energy_per_atom=-7.077087638333333 ef_per_atom_relaxed=-7.077727495333333 REF_energy=-212.31262915 ef_per_atom=-2.8647791942500005 task_id=mp-665756 calc_id=0 ionic_step=0 pretrained=T config_weight=1.0 head=pbe_mp energy=-202.69462915 stress="-1.1421630900382692e-05 -0.0 -0.0 -0.0 -9.701560863020677e-05 1.9317077529533755e-05 -0.0 1.9317077529533755e-05 -4.371066778207728e-05" pbc="T T T"
Li      -0.87342271       5.72503190       5.95104804      -0.00017274       0.00115851      -0.00026589       0.00000000
Li      -0.87342271       7.60940810       9.28968246      -0.00017274      -0.00115851       0.00026589       0.00000000
Li       0.87342271       6.68413410       4.20943896       0.00017274      -0.00115851       0.00026589       0.00000000
Li       2.42340936       7.65629534       9.12284727       0.00043526      -0.00034844      -0.00107605       0.00000000
Li      -0.77520092       7.65361930       1.06784686      -0.00150617       0.00193999       0.00052713       0.00000000
Li      -0.77520092       3.83027270       4.01239664      -0.00150617      -0.00193999      -0.00052713       0.00000000
Li       0.77520092       4.75554670       9.09264014       0.00150617      -0.00193999      -0.00052713       0.00000000
Li       0.77520092       8.57889330       6.14809036       0.00150617       0.00193999       0.00052713       0.00000000
Li      -2.42340936       6.73102134       4.04260377      -0.00043526      -0.00034844      -0.00107605       0.00000000
Li      -2.42340936       4.75287066       1.03763973      -0.00043526       0.00034844       0.00107605       0.00000000
Li       2.42340936       5.67814466       6.11788323       0.00043526       0.00034844       0.00107605       0.00000000
Li       0.87342271       4.79975790       0.87080454       0.00017274       0.00115851      -0.00026589       0.00000000
Zr       0.73216467      10.22188056       8.78715494       0.00056213      -0.00001134      -0.00049189       0.00000000
Zr       0.73216467       3.11255944       6.45357556       0.00056213       0.00001134       0.00049189       0.00000000
Zr      -0.73216467       2.18728544       1.37333206      -0.00056213       0.00001134       0.00049189       0.00000000
Zr      -0.73216467       9.29660656       3.70691144      -0.00056213      -0.00001134      -0.00049189       0.00000000
O        0.67571237       3.08055757       2.61389705       0.00145778      -0.00287516      -0.00048336       0.00000000
O        0.67571237       8.40333443       2.46634645       0.00145778       0.00287516       0.00048336       0.00000000
O       -0.67571237       9.32860843       7.54658995      -0.00145778       0.00287516       0.00048336       0.00000000
O       -0.67571237       4.00583157       7.69414055      -0.00145778      -0.00287516      -0.00048336       0.00000000
O        2.06967332       5.74194600       2.54012175      -0.00283704       0.00000000       0.00000000       0.00000000
O       -2.06967332       6.66722000       7.62036525       0.00283704       0.00000000       0.00000000       0.00000000
O        0.79629628       4.80845804       5.10591905       0.00012786      -0.00132042      -0.00037225       0.00000000
O        0.79629628       8.52598196      10.13481145       0.00012786       0.00132042       0.00037225       0.00000000
O       -0.79629628       7.60070796       5.05456795      -0.00012786       0.00132042       0.00037225       0.00000000
O       -0.79629628       3.88318404       0.02567555      -0.00012786      -0.00132042      -0.00037225       0.00000000
O       -2.28550913       6.60029037       0.22903770       0.00070979      -0.00003367      -0.00122882       0.00000000
O       -2.28550913       4.88360163       4.85120580       0.00070979       0.00003367       0.00122882       0.00000000
O        2.28550913       5.80887563       9.93144930      -0.00070979       0.00003367       0.00122882       0.00000000
O        2.28550913       7.52556437       5.30928120      -0.00070979      -0.00003367      -0.00122882       0.00000000
2
Lattice="0.0 -1.532199 0.0 -2.30771 0.766099 0.0 0.0 0.0 -5.701631" Properties=species:S:1:pos:R:3:forces:R:3:magmoms:R:1 bandgap=0.0 e_per_atom_relaxed=-3.37730416 mp_id=mp-1058623 energy_per_atom=-3.36838645 ef_per_atom_relaxed=-3.37730416 REF_energy=-6.7367729 ef_per_atom=1.57956901875 task_id=mp-1058665 calc_id=0 ionic_step=0 pretrained=T config_weight=1.0 head=pbe_mp energy=-6.7367729 stress="-0.2027139798593671 -4.392149971884049e-08 -0.0 -4.392149971884049e-08 0.035556059956457955 -0.0 -0.0 -0.0 -0.027636542585355393" pbc="T T T"
O       -0.76755127      -0.00000093      -4.27622325       0.02478160       0.00000001       0.00000000       0.00200000
O       -1.54015873      -0.76609907      -1.42540775      -0.02478160      -0.00000001       0.00000000      -0.00200000
30
Lattice="8.17203845 1e-08 0.0 -1e-08 8.17203845 0.0 0.0 0.0 5.09730473" Properties=species:S:1:pos:R:3:forces:R:3:magmoms:R:1 bandgap=3.4764999999999997 e_per_atom_relaxed=-9.90637209 mp_id=mp-775910 energy_per_atom=-9.906262463 ef_per_atom_relaxed=-9.90637209 REF_energy=-297.18787389 ef_per_atom=-3.7583919404999997 task_id=mp-775910 calc_id=0 ionic_step=2 pretrained=T config_weight=1.0 head=pbe_mp energy=-283.44787389 stress="0.0033522516495829275 -4.924550700321891e-09 -0.0 -4.924550700321891e-09 0.0033522516495829275 -0.0 -0.0 -0.0 0.004770363342453287" pbc="T T T"
Zr       0.61791511       7.21606751       3.84392669      -0.02432926      -0.02268989      -0.00370580       0.00000000
Zr       0.95597094       4.70393435       1.25337804       0.02268989      -0.02432926       0.00370580       0.00000000
Zr       2.04300961       2.04300962       4.17549698       0.00000000       0.00000000      -0.02166405       0.00000000
Zr       3.13004827       7.55412333       1.25337804      -0.02268989       0.02432926       0.00370580       0.00000000
Zr       3.46810410       5.04199017       3.84392669       0.02432926       0.02268989      -0.00370580       0.00000000
Zr       4.70393434       3.13004829       1.25337804      -0.02432926      -0.02268989       0.00370580       0.00000000
Zr       5.04199017       0.61791513       3.84392669       0.02268989      -0.02432926      -0.00370580       0.00000000
Zr       6.12902883       6.12902884       0.92180775       0.00000000       0.00000000       0.02166405       0.00000000
Zr       7.21606750       3.46810411       3.84392669      -0.02268989       0.02432926      -0.00370580       0.00000000
Zr       7.55412333       0.95597095       1.25337804       0.02432926       0.02268989       0.00370580       0.00000000
O        0.37060750       1.14695009       3.12377932       0.05396904      -0.02400950      -0.04864077       0.00000000
O        0.35523320       2.76886347       0.38622538      -0.01988984       0.01364979      -0.01146271       0.00000000
O        1.14695009       3.71541173       3.12377932      -0.02400950      -0.05396904      -0.04864077       0.00000000
O        1.31715575       0.35523320       0.38622538      -0.01364979      -0.01988984      -0.01146271       0.00000000
O        2.04300960       6.12902884       2.54865237       0.00000000       0.00000000       0.00000000       0.00000000
O        2.04300960       6.12902884       0.00000000       0.00000000       0.00000000       0.00000000       0.00000000
O        2.76886347       3.73078603       0.38622538       0.01364979       0.01988984      -0.01146271       0.00000000
O        2.93906913       0.37060750       3.12377932       0.02400950       0.05396904      -0.04864077       0.00000000
O        3.73078602       1.31715576       0.38622538       0.01988984      -0.01364979      -0.01146271       0.00000000
O        3.71541172       2.93906914       3.12377932      -0.05396904       0.02400950      -0.04864077       0.00000000
O        4.45662672       5.23296932       1.97352541       0.05396904      -0.02400950       0.04864077       0.00000000
O        4.44125242       6.85488270       4.71107935      -0.01988984       0.01364979       0.01146271       0.00000000