2
Lattice="3.01479638 -0.0 0.0 -1.507397699999999 2.61089059 -0.0 -0.0 -0.0 5.1083222" Properties=species:S:1:pos:R:3:initial_magmoms:R:1 REF_energy=-4.76143733 pbc="T T T"
Li      -0.00000118       1.74059460       1.27708055      -0.00000000
Li       1.50739986       0.87029599       3.83124165      -0.00000000
3
Lattice="-1.539337269999999 -2.66621007 0.0 -3.07867244 -3.0000000000000004e-08 0.0 -1.53933724 -0.88873703 -7.45647799" Properties=species:S:1:pos:R:3:initial_magmoms:R:1 REF_energy=-7.160119239999999 pbc="T T T"
Li      -4.61800863      -2.66620944      -4.98775184       0.00000000
Li      -1.53933832      -0.88873769      -2.46872615       0.00000000
Li       0.00000000       0.00000000       0.00000000      -0.00000000
3
Lattice="0.0 0.0 -2.888843 -2.474382 -4.285834 0.0 -2.474451 4.285874 0.0" Properties=species:S:1:pos:R:3:initial_magmoms:R:1 REF_energy=-7.113106589999999 pbc="T T T"
Li       0.00000000       0.00000000       0.00000000      -0.00000000
Li      -2.47408653       1.42882943      -1.44442150      -0.00000000
Li      -2.47474647      -1.42878943      -1.44442150      -0.00000000
12
Lattice="8.046617 2.787678 0.0 -8.046617 2.787678 0.0 0.0 0.0 5.406859" Properties=species:S:1:pos:R:3:initial_magmoms:R:1 REF_energy=-27.975923289999994 pbc="T T T"
Li      -0.00000000       4.21470709       3.23226897      -0.00000000
Li      -0.00000000       1.36064891       2.17459003      -0.00000000
Li       0.00000000       4.14832691       0.52883947      -0.00000000
Li      -0.00000000       1.42702909       4.87801953      -0.00000000
Li       2.63235419       3.44774440       4.07607420       0.00000000
Li       2.63235419       2.12761160       1.33078480       0.00000000
Li      -5.41426281       2.12761160       1.37264470       0.00000000
Li      -5.41426281       3.44774440       4.03421430       0.00000000
Li      -2.63235419       2.12761160       1.33078480       0.00000000
Li      -2.63235419       3.44774440       4.07607420       0.00000000
Li       5.41426281       3.44774440       4.03421430       0.00000000
Li       5.41426281       2.12761160       1.37264470       0.00000000
1
Lattice="2.808187 0.0 -0.992844 -1.404093 2.431961 -0.992844 0.0 0.0 2.978532" Properties=species:S:1:pos:R:3:initial_magmoms:R:1 REF_energy=-2.37705555 pbc="T T T"
Li       0.00000000       0.00000000       0.00000000       0.00000000
1
Lattice="2.653817 0.0 1.532182 0.884605 2.502042 1.532182 0.0 0.0 3.064364" Properties=species:S:1:pos:R:3:initial_magmoms:R:1 REF_energy=-2.38503404 pbc="T T T"
Li       0.00000000       0.00000000       0.00000000      -0.00000000
8
Lattice="-3.432400099999999 3.432400099999999 3.432400099999999 3.432400099999999 -3.432400099999999 3.432400099999999 3.432400099999999 3.432400099999999 -3.432400099999999" Properties=species:S:1:pos:R:3:initial_magmoms:R:1 REF_energy=-19.0230956 pbc="T T T"
Li       1.67638617      -1.67638617       1.75601393       0.00000000
Li       1.75601393       1.67638617      -1.67638617       0.00000000
Li       3.39258622       3.39258622       3.39258622       0.00000000
Li       3.47221398      -0.03981388       0.03981388       0.00000000
Li      -0.03981388       0.03981388       3.47221398       0.00000000
Li       1.67638617       1.67638617       1.67638617       0.00000000
Li      -1.67638617       1.75601393       1.67638617       0.00000000
Li       0.03981388       3.47221398      -0.03981388       0.00000000
4
Lattice="4.454441 0.0 -1e-06 0.0 4.454441 -1e-06 -1e-06 -1e-06 4.454439" Properties=species:S:1:pos:R:3:initial_magmoms:R:1 REF_energy=-8.499630676666667 pbc="T T T"
Li       3.89571093       0.55872882       2.78594769       0.00000000
Li       1.66849068       1.66849068       1.66848956       0.00000000
Li       0.55872857       2.78594907       3.89570906       0.00000000
Li       2.78594982       3.89571143       0.55872769       0.00000000
4
Lattice="3.034385529999999 -0.0 -0.0 -1.51719327 2.627855 -0.0 -0.0 0.0 10.21620767" Properties=species:S:1:pos:R:3:initial_magmoms:R:1 REF_energy=-9.52326929 pbc="T T T"
Li       0.00000000       0.00000000       0.00001022       0.00000000
Li       0.00000118       1.75189895       2.55405192       0.00000000
Li       0.00000000       0.00000000       5.10809362       0.00000000
Li       1.51719715       0.87595079       7.66215575       0.00000000
1
Lattice="3.46820226 -0.0 -1.22619408 -1.73410113 3.00355103 -1.22619408 -0.0 0.0 3.67858224" Properties=species:S:1:pos:R:3:initial_magmoms:R:1 REF_energy=-29.64055886 pbc="T T T"
La       0.00000000       0.00000000       0.00000000       0.27400000
1
Lattice="3.25945373 2e-08 1.88184628 1.08648528 3.07304268 1.88184628 -2e-08 -1e-08 3.76369363" Properties=species:S:1:pos:R:3:initial_magmoms:R:1 REF_energy=-29.7254185 pbc="T T T"
La       0.00000000       0.00000000       0.00000000      -0.00000000
4
Lattice="3.79631058 -4e-08 0.0 -1.89815636 3.2877029 0.0 0.0 0.0 12.04125753" Properties=species:S:1:pos:R:3:initial_magmoms:R:1 REF_energy=-118.97912082 pbc="T T T"
La       0.00000000       0.00000000       0.00000000       0.00000000
La       0.00000000       0.00000000       6.02062876       0.00000000
La      -0.00000261       2.19180302       3.01031438       0.00000000
La       1.89815683       1.09589984       9.03094315       0.00000000
1
Lattice="-0.0 -1.50017828 -2.59839129 0.0 -1.50017828 2.59839129 -3.02838447 0.0 0.0" Properties=species:S:1:pos:R:3:initial_magmoms:R:1 REF_energy=-22.388012265 pbc="T T T"
Zr       0.00000000       0.00000000       0.00000000       0.00000000
6
Lattice="-0.22812365 0.0 5.42624845 -3.21841592 4.16805617 2.58532684 -3.21841592 -4.16805617 2.58532684" Properties=species:S:1:pos:R:3:initial_magmoms:R:1 REF_energy=-136.445294 pbc="T T T"
Zr      -3.38950866       2.08317355       6.65501318       0.00000000
Zr      -3.27544683      -2.08317355       3.94188895       0.00000000
Zr      -1.70618514       0.60533622       3.58070694       0.00000000
Zr      -4.84470852       0.60533622       4.30307097       0.00000000
Zr      -4.95877035      -0.60533622       7.01619519       0.00000000
Zr      -1.82024697      -0.60533622       6.29383116       0.00000000
1
Lattice="1.458969 -2.527009 0.0 1.458969 2.527009 0.0 0.0 0.0 7.600479" Properties=species:S:1:pos:R:3:initial_magmoms:R:1 REF_energy=-20.948230315 pbc="T T T"
Zr       0.00000000       0.00000000       0.00000000       0.02200000
2
Lattice="3.239231 0.0 0.0 -1.619616 2.805257 0.0 0.0 0.0 5.17222" Properties=species:S:1:pos:R:3:initial_magmoms:R:1 REF_energy=-45.49958381 pbc="T T T"
Zr      -0.00000195       1.87017227       1.29305500       0.00000000
Zr       1.61961695       0.93508473       3.87916500       0.00000000
1
Lattice="2.92444198 0.0 -1.03394505 -1.46222048 2.53264096 -1.03394505 1e-08 2e-08 3.10183721" Properties=species:S:1:pos:R:3:initial_magmoms:R:1 REF_energy=-22.62815007 pbc="T T T"
Zr       0.00000000       0.00000000       0.00000000       0.00000000
1
Lattice="2.77358176 0.0 1.60132773 0.92452793 2.61495786 1.60132773 -2e-08 -1e-08 3.20265751" Properties=species:S:1:pos:R:3:initial_magmoms:R:1 REF_energy=-22.69280977 pbc="T T T"
Zr       0.00000000       0.00000000       0.00000000      -0.00000000
2
Lattice="-2.30513706 -0.07947494000000001 -2.28481788 -2.30513706 -0.07947494000000001 2.28481788 2.08102941 3.58635222 0.0" Properties=species:S:1:pos:R:3:initial_magmoms:R:1 REF_energy=-9.89248683 pbc="T T T"
O        0.02820845       0.61081088      -0.00000000       0.83400000
O       -2.55745316       2.81659146       0.00000000       0.83400000
6
Lattice="4.6529777800000005 0.14210147 3.01938997 1.712115579999999 4.32886358 3.01938996 0.20230271 0.14210144 5.54310294" Properties=species:S:1:pos:R:3:initial_magmoms:R:1 REF_energy=-23.901233670000003 pbc="T T T"
O        2.05442142       4.13494304       7.13193783      -0.00000000
O        5.60815966       3.36249864       5.42448908       0.00000000
O        3.76554184       0.52989371       7.59755493      -0.00000000
O        1.98418452       1.97051125       5.17665058       0.00000000
O        3.14514545       1.19806684       4.82600346       0.00000000
O        3.01509492       2.55222405       4.36038636      -0.00000000
1
Lattice="-1.255532619999999 -1.255532619999999 0.0 -1.255532619999999 1.255532619999999 0.0 0.0 0.0 -3.0530507" Properties=species:S:1:pos:R:3:initial_magmoms:R:1 REF_energy=-3.39040623 pbc="T T T"
O        0.00000000       0.00000000       0.00000000      -0.00000000
1
Lattice="1.520366 0.0 0.0 0.0 3.095662 0.0 0.0 1.031631 4.600127" Properties=species:S:1:pos:R:3:initial_magmoms:R:1 REF_energy=-3.63686277 pbc="T T T"
O        0.76018300       0.51581550       2.30006350       0.00100000
2
Lattice="-2.17085644 -2.17085644 -0.0 -2.17085644 0.0 -2.17085644 -0.0 -2.17085644 -2.17085644" Properties=species:S:1:pos:R:3:initial_magmoms:R:1 REF_energy=-6.13423966 pbc="T T T"
O       -3.25628466      -3.25628466      -3.25628466       0.00000000
O        0.00000000       0.00000000       0.00000000       0.00000000
2
Lattice="0.766099 -2.30771 0.0 0.766099 2.30771 0.0 0.0 0.0 5.701631" Properties=species:S:1:pos:R:3:initial_magmoms:R:1 REF_energy=-6.75460832 pbc="T T T"
O        0.76609900       1.54015642       1.42540775       0.00000000
O        0.76609900      -1.54015642       4.27622325       0.00000000
1
Lattice="2.352226 0.0 0.0 0.0 2.352226 0.0 0.0 0.0 1.544743" Properties=species:S:1:pos:R:3:initial_magmoms:R:1 REF_energy=-3.36863 pbc="T T T"
O        0.00000000       0.00000000       0.00000000       0.00100000
4
Lattice="-1.22909637 -2.12886164 -0.0 -1.22909637 2.12886164 0.0 0.0 -0.0 -7.80732624" Properties=species:S:1:pos:R:3:initial_magmoms:R:1 REF_energy=-19.28900299 pbc="T T T"
O       -1.22909637      -0.70971432      -5.24571666      -0.00000000
O       -1.22909637       0.70971432      -2.56160958      -0.00000000
O       -1.22909637       0.70971432      -1.34205354      -0.00000000
O       -1.22909637      -0.70971432      -6.46527270      -0.00000000
8
Lattice="-0.46794098427914904 0.0 4.725934055888081 -3.013795448764393 4.627756192836279 -2.207678753722591 -3.013795448764393 -4.627756192836279 -2.207678753722591" Properties=species:S:1:pos:R:3:initial_magmoms:R:1 REF_energy=-39.43974671 pbc="T T T"
O       -2.35028107       3.30768222       0.28594288       0.83300000
O       -3.91128032       3.30768222      -2.33833336       0.83300000
O       -4.14525081      -3.30768222       0.02463367       0.83300000
O       -2.58425157      -3.30768222       2.64890991       0.83300000
O       -4.30804820      -1.04198635      -2.47044150       0.83300000
O       -1.95351319      -1.04198635       0.41805103       0.83300000
O       -2.18748368       1.04198635       2.78101805       0.83300000
O       -4.54201869       1.04198635      -0.10747448       0.83300000
12
Lattice="4.706001 0.0 0.0 0.0 4.706001 0.0 0.0 0.0 4.988869" Properties=species:S:1:pos:R:3:initial_magmoms:R:1 REF_energy=-50.50069568000001 pbc="T T T"
O        2.80274831       1.24695379       2.52994028       0.00000000
O        1.90325269       3.45904721       0.03550578      -0.00000000
O        3.59995429       4.25625319       1.28272303      -0.00000000
O        1.10604671       0.44974781       3.77715753       0.00000000
O        3.45904721       1.90325269       4.95336322       0.00000000
O        1.24695379       2.80274831       2.45892872       0.00000000
O        4.25625319       3.59995429       3.70614597      -0.00000000
O        0.44974781       1.10604671       1.21171147       0.00000000
O        4.56176207       0.14423893       3.74165175       0.00000000
O        0.14423893       4.56176207       1.24721725       0.00000000
O        2.49723943       2.49723943       2.49443450      -0.00000000
O        2.20876157       2.20876157       0.00000000       0.00000000
12
Lattice="4.930603 0.0 0.0 -0.010766 5.122171 0.0 -0.147329 -0.086799 7.897326" Properties=species:S:1:pos:R:3:initial_magmoms:R:1 REF_energy=-54.33728669 pbc="T T T"
O        1.99968417       3.69353320       3.93966005       0.00000000
O        2.75932454       1.35362703       7.86332011       0.00000000
O        1.08098018       0.41870441       1.92633945       0.00000000
O        3.68275781       4.60524438       5.93470623       0.00000000
O        1.35065804       2.99327048       0.02966236      -0.00000000
O        3.45773759       2.04709575       3.95201936      -0.00000000
O        0.29934438       1.05838553       5.90033707      -0.00000000
O        4.48068672       3.95391665       2.04028997      -0.00000000
O       -0.00450093       4.93058131       5.92797771      -0.00000000
O        4.77300410       0.08416591       1.98545883      -0.00000000
O        2.23095482       2.43102223       3.93624051      -0.00000000
O        2.45075688       2.59928041       7.89661524      -0.00000000
4
Lattice="4.134699524905895 0.0 0.0 0.0 3.00549712556996 0.066872343016766 0.0 1.283458872161581 3.911774870783662" Properties=species:S:1:pos:R:3:initial_magmoms:R:1 REF_energy=-19.67194765 pbc="T T T"
O        1.32783668       1.40620138       1.36208877      -0.00000000
O        1.32783668       1.38000605       2.58312227      -0.00000000
O        2.80686284       2.88275461       2.61655844      -0.00000000
O        2.80686284       2.90894995       1.39552494      -0.00000000
8
Lattice="3.24073774 3.99566228 -2.11034515 -3.24073774 3.99566228 2.11034515 -0.36095222 -0.0 3.46302149" Properties=species:S:1:pos:R:3:initial_magmoms:R:1 REF_energy=-33.4314924 pbc="T T T"
O        0.26235554       6.66349226       1.38960139      -0.00000000
O       -0.44283165       6.66349226       0.34190936      -0.00000000
O       -0.62330776       1.32783230       2.07342010      -0.00000000
O        0.08187943       1.32783230       3.12111213      -0.00000000
O       -1.83099662       3.80161034       3.48720806       0.00000000
O        1.28956829       3.80161034       1.70732417       0.00000000
O        1.47004440       4.18971422      -0.02418657       0.00000000
O       -1.65052051       4.18971422       1.75569732       0.00000000
10
Lattice="5.160296 0.0 0.0 -0.023517 5.240192 0.0 -0.051073 -0.024406 5.889941" Properties=species:S:1:pos:R:3:initial_magmoms:R:1 REF_energy=-45.60947433 pbc="T T T"
O        4.40802865       2.59396770       5.82250118       0.44500000
O        0.42949378       2.21057242       5.77742546       0.35500000
O        1.88387504       5.16529882       3.01115577       0.44500000
O        3.07614732       0.33956639       3.08394955       0.35600000
O        2.56397456       4.56329383       0.08764821       0.44500000
O        2.20146339       0.50355361       0.11066021       0.35800000
O        4.74293034       2.15961527       2.84386377       0.35800000
O        5.05037487       3.36230043       2.86832470       0.44500000
O        3.11779666       1.97066716       2.94816874       0.04600000
O        0.52081551       0.57779543       5.84096614       0.04700000
8
Lattice="3.110107 4.377428 0.0 -3.110107 4.377428 0.0 0.0 1.908312 3.953345" Properties=species:S:1:pos:R:3:initial_magmoms:R:1 REF_energy=-39.58368804 pbc="T T T"
O        1.59433415       4.41329543       0.61431423      -0.00100000
O        1.59433415       6.24987257       3.33903077      -0.00100000
O       -1.59433415       6.24987257       3.33903077      -0.00100000
O       -1.59433415       4.41329543       0.61431423      -0.00100000
O        0.00000000       7.27634237       0.70496048       0.00100000
O       -0.00000000       3.38682563       3.24838452       0.00100000
O       -0.00000000       9.11238532       3.42896937       0.00100000
O        0.00000000       1.55078268       0.52437563       0.00100000
4
Lattice="4.12432639 0.0 0.0 0.0 3.00267343 0.07366703000000001 0.0 1.29275239 3.88574266" Properties=species:S:1:pos:R:3:initial_magmoms:R:1 REF_energy=-23.230452370000002 pbc="T T T"
O        1.32228049       1.41323911       1.35092233       0.00000000
O        1.32228049       1.38085000       2.57165385       0.00000000
O        2.80204590       2.88218671       2.60848736       0.00000000
O        2.80204590       2.91457582       1.38775584       0.00000000
8
Lattice="3.626553397052227 4.361681192497014 -0.045664758862600005 -3.626553397052227 4.361681192497014 -0.045664758862600005 0.0 1.874245717101938 3.704260268139416" Properties=species:S:1:pos:R:3:initial_magmoms:R:1 REF_energy=-47.78026921 pbc="T T T"
O        1.59538964       4.37070182       0.56525592      -0.80100000
O        1.59538964       6.22690628       3.04767483      -0.80100000
O       -1.59538964       6.22690628       3.04767483      -0.80100000
O       -1.59538964       4.37070182       0.56525592      -0.80100000
O        0.00000000       6.78526357       0.52397241       0.80100000
O        0.00000000       3.81234453       3.08895834       0.80100000
O        0.00000000       8.64114090       3.00631259       0.80100000
O        0.00000000       1.95646720       0.60661816       0.80100000
2
Lattice="2.21948014 0.38368873000000003 -0.67674919 -0.57409394 2.1800582 -0.66848274 0.01219202 0.01306707 4.16581796" Properties=species:S:1:pos:R:3:initial_magmoms:R:1 REF_energy=-11.38494409 pbc="T T T"
O        1.49335500       2.35102986       2.22379756      -0.00000000
O        0.10465316       0.18726283       0.51915418      -0.00000000
8
Lattice="3.52662795 4.4648620900000004 0.047863460000000004 -3.52662795 4.4648620900000004 0.047863460000000004 0.0 2.00114765 3.75637579" Properties=species:S:1:pos:R:3:initial_magmoms:R:1 REF_energy=-47.75216296 pbc="T T T"
O        1.62656443       4.45963177       0.65886753      -0.80000000
O        1.62656443       6.47124006       3.19323518      -0.80000000
O       -1.62656443       6.47124006       3.19323518      -0.80000000
O       -1.62656443       4.45963177       0.65886753      -0.80000000
O       -0.00000000       6.83548683       0.66682495       0.80000000
O        0.00000000       4.09538500       3.18527776       0.80000000
O       -0.00000000       8.85061707       3.20120615       0.80100000
O       -0.00000000       2.08025476       0.65089656       0.80100000
8
Lattice="3.959660689999999 5.05564501 -0.04339028 -3.959660689999999 5.05564501 -0.04339028 0.0 2.16975418 3.63742626" Properties=species:S:1:pos:R:3:initial_magmoms:R:1 REF_energy=-47.55643376 pbc="T T T"
O        1.70341107       5.07596803       0.56790454       0.83300000
O        1.70341107       7.20507617       2.98274116       0.83300000
O       -1.70341107       7.20507617       2.98274116       0.83300000
O       -1.70341107       5.07596803       0.56790454       0.83300000
O        0.00000000       7.86603885       0.51370795       0.83300000
O        0.00000000       4.41500535       3.03693775       0.83300000
O       -0.00000000       9.99076128       2.92875730       0.83400000
O       -0.00000000       2.29028292       0.62188840       0.83400000
6
Lattice="4.305463299999999 -3.03894033 -0.43021313 4.305463299999999 3.03894033 -0.43021313 2.66007244 -0.0 4.56960321" Properties=species:S:1:pos:R:3:initial_magmoms:R:1 REF_energy=-24.19016735 pbc="T T T"
O        3.85699327       0.45543037       4.22059147      -0.00000000
O        5.29478765       2.20009145      -0.14840559      -0.00000000
O        5.04820138      -2.65552182       0.60089118      -0.00000000
O        6.37823760      -0.38341851       2.88569279       0.00000000
O        6.83242035      -0.45543037       1.50557673      -0.00000000
O        6.62482387       0.83884888       2.13639601      -0.00000000
8
Lattice="4.69979971 3.66512074 0.24068694000000002 -4.69979971 3.66512074 0.24068694000000002 0.0 2.23820687 4.30188953" Properties=species:S:1:pos:R:3:initial_magmoms:R:1 REF_energy=-47.68411402 pbc="T T T"
O        3.39824526       3.97705841       2.77605956       0.83300000
O       -1.30155445       3.04537264       3.91746167       0.83300000
O        1.30155445       1.92626920       1.76651691       0.83300000
O       -3.39824526       2.85795497       0.62511480       0.83300000
O       -1.07157605       7.05423995       4.06334991       0.83300000
O       -1.07157605       3.63331183       2.87085827       0.83300000
O        1.07157605       2.51420840       0.71991350       0.83300000
O        1.07157605       5.93513652       1.91240514       0.83300000
24
Lattice="6.65259782 0.0 0.0 0.0 6.76810209 0.0 0.0 0.0 7.45043691" Properties=species:S:1:pos:R:3:initial_magmoms:R:1 REF_energy=-108.87989591000002 pbc="T T T"
O        5.09379795       2.47277815       0.10801792      -0.31500000
O        3.03504379       6.43685209       5.11715207       0.32100000
O        1.76749904       0.91127290       7.34241899      -0.31500000
O        4.88509878       4.29532394       3.83323638      -0.31500000
O        1.76749904       2.47277815       3.61720053      -0.31500000
O        1.02444491       1.25035197       0.87780556      -0.00400000
O        4.35074382       1.25035197       2.84741290      -0.00400000
O        0.29125512       0.33125000       1.39193361       0.32100000
O        6.36134270       3.71530105       2.33328484       0.32100000
O        0.29125512       3.05280104       5.11715207       0.32100000
O        3.61755403       0.33125000       2.33328484       0.32100000
O        5.09379795       0.91127290       3.83323638      -0.31500000
O        1.55879987       4.29532394       7.34241899      -0.31500000
O        6.36134270       6.43685209       6.05850330       0.32100000
O        3.03504379       3.71530105       1.39193361       0.32100000
O        4.35074382       2.13369907       6.57263135      -0.00400000
O        2.30185400       5.51775012       4.60302401      -0.00400000
O        4.88509878       5.85682919       0.10801792      -0.31500000
O        5.62815291       4.63440302       2.84741290      -0.00400000
O        1.02444491       2.13369907       4.60302401      -0.00400000
O        1.55879987       5.85682919       3.61720053      -0.31500000
O        3.61755403       3.05280104       6.05850330       0.32100000
O        5.62815291       5.51775012       6.57263135      -0.00400000
O        2.30185400       4.63440302       0.87780556      -0.00400000
2
Lattice="-1.501773 -1.889885 0.0 -1.501773 1.889885 0.0 1.501773 0.0 -3.898837" Properties=species:S:1:pos:R:3:initial_magmoms:R:1 REF_energy=-9.65360933 pbc="T T T"
O       -1.50177300      -0.00000000      -0.61525207       0.00000000
O        0.00000000      -0.00000000      -3.28358493       0.00000000
2
Lattice="3.00192017 -0.06534029 2.94153491 1.19420234 2.7549360800000002 2.94153591 -0.10194061 -0.06534029 4.20163748" Properties=species:S:1:pos:R:3:initial_magmoms:R:1 REF_energy=-9.87170491 pbc="T T T"
O        3.87057930       2.48093252       9.53393478       0.83300000
O        0.22360260       0.14332298       0.55077352       0.83300000
2
Lattice="1.66241594 2.84940373 0.10675493 -1.66241594 2.84940373 0.10675493 0.0 2.2562691 3.734141649999999" Properties=species:S:1:pos:R:3:initial_magmoms:R:1 REF_energy=-9.87598179 pbc="T T T"
O        0.00000000       5.90476784       0.78901064       0.83300000
O       -0.00000000       2.05030872       3.15864087       0.83300000
8
Lattice="4.04434029 0.00032948 7.895000000000004e-05 0.00032849 4.04402466 -1.635e-05 0.00019786 -1.089e-05 8.78326582" Properties=species:S:1:pos:R:3:initial_magmoms:R:1 REF_energy=-39.57350969 pbc="T T T"
O        2.24853806       1.47232489       4.66106556       0.83400000
O        1.79624284       2.57205941       0.26934331       0.83400000
O        3.49475012       3.81818537       2.46501669       0.83400000
O        0.55008546       0.22617650       6.85654709       0.83400000
O        2.57252430       1.79607605       8.51392408       0.83400000
O        1.47249918       2.24822801       4.12217959       0.83400000
O        3.81838697       3.49450733       6.31847904       0.83400000
O        0.22643964       0.54981948       1.92676702       0.83400000
12
Lattice="5.168494 0.0 0.0 0.0 5.168494 0.0 0.0 0.0 7.5491209999999995" Properties=species:S:1:pos:R:3:initial_magmoms:R:1 REF_energy=-54.15860544 pbc="T T T"
O        4.80406866       1.39013365       3.78091686       0.00000000
O        0.36442534       3.77836035       0.00635636       0.00000000
O        3.77836035       4.80406866       5.66819711       0.00000000
O        1.39013365       0.36442534       1.89363661       0.00000000
O        3.97247348       2.22092255       7.54309680       0.00000000
O        1.19602052       2.94757145       3.76853630       0.00000000
O        2.94757145       3.97247348       1.88125605       0.00000000
O        2.22092255       1.19602052       5.65581655       0.00000000
O        2.64647567       0.04958653       1.88684995       0.00000000
O        2.52201833       5.11890747       5.66141045       0.00000000
O        5.11890747       2.64647567       3.77413020       0.00000000
O        0.04958653       2.52201833       7.54869070       0.00000000
4
Lattice="0.0 3.723174 3.723174 3.723174 0.0 3.723174 3.723174 3.723174 0.0" Properties=species:S:1:pos:R:3:initial_magmoms:R:1 REF_energy=-36.09984833 pbc="T T T"
Li       1.86158700       1.86158700       1.86158700       0.00000000
Li       5.58476100       5.58476100       5.58476100       0.00000000
Li       3.72317400       3.72317400       3.72317400       0.00000000
La       0.00000000       0.00000000       0.00000000       0.00000000
8
Lattice="3.687645 -6.387189 0.0 3.687645 6.387189 0.0 0.0 0.0 5.453433" Properties=species:S:1:pos:R:3:initial_magmoms:R:1 REF_energy=-182.08255621333336 pbc="T T T"
Li       3.68764500      -2.12906726       1.36335825       0.00000000
Li       3.68764500       2.12906726       4.09007475       0.00000000
La       3.68764500      -4.15105968       4.09007475       0.00100000
La       1.93654096      -1.11805827       4.09007475      -0.00200000
La       5.43874904      -1.11805827       4.09007475       0.00200000
La       1.93654096       1.11805827       1.36335825       0.00200000
La       5.43874904       1.11805827       1.36335825      -0.00200000
La       3.68764500       4.15105968       1.36335825       0.00100000
4
Lattice="5.116069 0.0 0.0 0.0 5.116069 0.0 0.0 0.0 5.116069" Properties=species:S:1:pos:R:3:initial_magmoms:R:1 REF_energy=-91.03013572666667 pbc="T T T"
Li       2.55803450       2.55803450       2.55803450      -0.00000000
La       2.55803450       0.00000000       0.00000000       0.02500000
La       0.00000000       2.55803450       0.00000000       0.02500000
La       0.00000000       0.00000000       2.55803450       0.02500000
4
Lattice="0.0 3.345847 3.345847 3.345847 0.0 3.345847 3.345847 3.345847 0.0" Properties=species:S:1:pos:R:3:initial_magmoms:R:1 REF_energy=-28.137335135 pbc="T T T"
Li       1.67292350       1.67292350       1.67292350       0.02000000
Li       5.01877050       5.01877050       5.01877050       0.02000000
Li       3.34584700       3.34584700       3.34584700       0.01600000
Zr       0.00000000       0.00000000       0.00000000       0.25600000
102
Lattice="9.593182 0.272761 -0.149923 0.244697 10.076166 0.144443 -0.147471 0.152937 10.378521" Properties=species:S:1:pos:R:3:initial_magmoms:R:1 REF_energy=-491.81162386999995 pbc="T T T"
Li       5.81524374       7.52306685       3.42788044       0.00000000
Li       2.63690537       2.65308447       3.50943882       0.00000000
Li       8.64703645       1.96872763       0.36730737       0.00000000
Li       0.24809053       3.87587743       6.20776093       0.00000000
Li       6.12980288       3.40794354      10.26524067       0.00000000
Li       7.86610162       6.83513776       6.01194907       0.00000000
Li       6.40608662      10.25686226       9.20577524       0.00000000
Li       1.72976191       5.53785628       0.89666640       0.00000000
Li       9.47373390       4.85531214       0.47235844       0.00000000
Li       8.99927496       6.67191223       8.26414906       0.00000000
Li       0.80598392       0.87048227       3.67880209       0.00000000
Li       5.51703639       9.54292088       4.42578012       0.00000000
Li       7.86669566       6.93182744       3.76562905       0.00000000
Li       4.57456644       3.63872961       8.41463270       0.00000000
Li       4.15297099       3.53299230       2.05816969       0.00000000
Li       7.87316052       4.64863899       2.33068203       0.00000000
Li       3.76474673       5.95727834       9.89569016       0.00000000
Li       3.01498010       8.80253940      10.27643682       0.00000000
Li       5.42888977       2.03225692       3.37314695       0.00000000
Li       0.58326050       1.43685061       6.01908631       0.00000000
Li       2.00862979       4.46305425       8.31864445       0.00000000
Li       6.01506290       5.53463888       7.69165318       0.00000000
Li       2.66648291       5.12869824       3.08359173       0.00000000
Li       5.87427267       7.99283778       6.44432592       0.00000000
Li       5.48095261       5.37783899       1.07468657       0.00000000
Li       6.81991833       3.23200415       7.63186464       0.00000000
Li       1.61676077       6.61712699       7.94199571       0.00000000
Li       5.67075170       1.20359183       6.89442985       0.00000000
Li       0.32415814       4.08793911       4.00100713       0.00000000
Li       8.96160948       8.91733210       0.78313815       0.00000000
Li       0.70890096       9.59351661       9.34042916       0.00000000
Li       0.33437917       6.21344195       3.19551661       0.00000000
Li       3.15864329       6.67093342       5.31994339       0.00000000
Li       7.50018958       7.42499653       1.50313207       0.00000000
Li       7.99985038       8.68219632       8.27042903       0.00000000
Li       0.64594885       9.40107120       6.81343174       0.00000000
Li       1.10828079       6.06953676       5.47320692       0.00000000
Li       0.83706040       0.43917138       1.10962962       0.00000000