4
Properties=species:S:1:pos:R:3 REF_energy=0.0
Li   0.0   0.0   0.0
O    5.0   0.0   0.0
Zr   0.0   5.0   0.0
La   0.0   0.0   5.0
4
Properties=species:S:1:pos:R:3 REF_energy=0.0
Li   0.0   0.0   0.0
O    5.0   0.0   0.0
Zr   0.0   5.0   0.0
La   0.0   0.0   5.0
